#LAMMPS data file
24277 atoms
2842 bonds
4570 angles
0 dihedrals
0 impropers

9 atom types
2 bond types
2 angle types
0 dihedral types
0 improper types
 
      0.0000 220.0000  xlo xhi
      0.0000 220.0000  ylo yhi
      0.0000 220.0000  zlo zhi

Masses

 1  22.9898 # Na
 2  26.9815 # ao  
 3  1.0079  # ho
 4  24.3050 # mgo  
 5  15.9994 # ob
 6  15.9994 # obos
 7  15.9994 # oh
 8 15.9994 # ohs
 9 28.0855 # st

Atoms

1 1 4 1.36 68.12575 60.997 60.25 # mgo
2 1 4 1.36 68.12575 69.977 60.25 # mgo
3 1 2 1.575 73.30575 60.997 60.25 # ao
4 1 2 1.575 73.30575 69.977 60.25 # ao
5 1 2 1.575 68.12575 63.997 60.25 # ao
6 1 2 1.575 68.12575 72.976999 60.25 # ao
7 1 2 1.575 73.30575 63.997 60.25 # ao
8 1 2 1.575 73.30575 72.976999 60.25 # ao
9 1 2 1.575 65.53575 65.487 60.25 # ao
10 1 2 1.575 65.53575 56.507 60.25 # ao
11 1 2 1.575 70.71575 65.487 60.25 # ao
12 1 4 1.36 70.71575 56.507 60.25 # mgo
13 1 2 1.575 65.53575 59.507 60.25 # ao
14 1 2 1.575 65.53575 68.487 60.25 # ao
15 1 2 1.575 70.71575 59.507 60.25 # ao
16 1 2 1.575 70.71575 68.487 60.25 # ao
17 1 9 2.1 66.48675 60.961 57.574 # st
18 1 9 2.1 66.48675 69.941 57.574 # st
19 1 9 2.1 71.66675 60.961 57.574 # st
20 1 9 2.1 71.66675 69.941 57.574 # st
21 1 9 2.1 66.48675 64.033 57.574 # st
22 1 9 2.1 66.48675 73.013 57.574 # st
23 1 9 2.1 71.66675 64.033 57.574 # st
24 1 9 2.1 71.66675 73.013 57.574 # st
25 1 9 2.1 67.17575 65.451 62.927 # st
26 1 9 2.1 67.17575 56.471 62.927 # st
27 1 9 2.1 72.35575 65.451 62.927 # st
28 1 9 2.1 72.35575 56.471 62.927 # st
29 1 9 2.1 67.17575 59.543 62.927 # st
30 1 9 2.1 67.17575 68.523 62.927 # st
31 1 9 2.1 72.35575 59.543 62.927 # st
32 1 9 2.1 72.35575 68.523 62.927 # st
33 1 9 2.1 63.89675 65.451 57.574 # st
34 1 9 2.1 63.89675 56.471 57.574 # st
35 1 9 2.1 69.07675 65.451 57.574 # st
36 1 9 2.1 69.07675 56.471 57.574 # st
37 1 9 2.1 63.89675 59.543 57.574 # st
38 1 9 2.1 63.89675 68.523 57.574 # st
39 1 9 2.1 69.07675 59.543 57.574 # st
40 1 9 2.1 69.07675 68.523 57.574 # st
41 1 9 2.1 64.58575 60.961 62.927 # st
42 1 9 2.1 64.58575 69.941 62.927 # st
43 1 9 2.1 69.76575 60.961 62.927 # st
44 1 9 2.1 69.76575 69.941 62.927 # st
45 1 9 2.1 64.58575 64.033 62.927 # st
46 1 9 2.1 64.58575 73.013 62.927 # st
47 1 9 2.1 69.76575 64.033 62.927 # st
48 1 9 2.1 69.76575 73.013 62.927 # st
49 1 5 -1.05 66.25075 62.497 57.077 # ob
50 1 5 -1.05 66.25075 71.476999 57.077 # ob
51 1 5 -1.05 71.43075 62.497 57.077 # ob
52 1 5 -1.05 71.43075 71.476999 57.077 # ob
53 1 5 -1.05 67.88075 64.544 56.929 # ob
54 1 5 -1.05 67.88075 73.524 56.929 # ob
55 1 5 -1.05 73.06075 64.544 56.929 # ob
56 1 5 -1.05 73.06075 73.524 56.929 # ob
57 1 5 -1.05 67.88075 60.45 56.929 # ob
58 1 5 -1.05 67.88075 69.43 56.929 # ob
59 1 5 -1.05 73.06075 60.45 56.929 # ob
60 1 5 -1.05 73.06075 69.43 56.929 # ob
61 1 7 -0.95 65.53575 58.007 60.25 # oh
62 1 8 -1.0809 71.33775 58.007 59.209 # ohs
63 1 7 -0.95 71.33775 66.987 59.209 # oh
64 1 3 0.425 65.53575 58.007 61.25 # ho
65 1 3 0.425 70.38275 58.007 59.209 # ho
66 1 3 0.425 70.38275 66.987 59.209 # ho
67 1 5 -1.05 66.53475 64.212 59.159 # ob
68 1 5 -1.05 66.53475 73.191999 59.159 # ob
69 1 5 -1.05 71.71475 64.212 59.159 # ob
70 1 6 -1.1808 71.71475 73.191999 59.159 # obos
71 1 6 -1.1808 66.55575 60.782 59.159 # obos
72 1 6 -1.1808 66.55575 69.762 59.159 # obos
73 1 5 -1.05 71.73575 60.782 59.159 # ob
74 1 5 -1.05 71.73575 69.762 59.159 # ob
75 1 5 -1.05 67.41075 58.007 63.422 # ob
76 1 5 -1.05 67.41075 66.987 63.422 # ob
77 1 5 -1.05 72.59075 58.007 63.422 # ob
78 1 5 -1.05 72.59075 66.987 63.422 # ob
79 1 5 -1.05 65.78175 60.054 63.571 # ob
80 1 5 -1.05 65.78175 69.034 63.571 # ob
81 1 5 -1.05 70.96175 60.054 63.571 # ob
82 1 5 -1.05 70.96175 69.034 63.571 # ob
83 1 5 -1.05 65.78175 64.94 63.571 # ob
84 1 5 -1.05 65.78175 55.385 63.571 # ob
85 1 5 -1.05 70.96175 64.94 63.571 # ob
86 1 5 -1.05 70.96175 55.385 63.571 # ob
87 1 8 -1.0809 67.50375 62.497 61.291 # ohs
88 1 8 -1.0809 67.50375 71.476999 61.291 # ohs
89 1 7 -0.95 72.68375 62.497 61.291 # oh
90 1 7 -0.95 72.68375 71.476999 61.291 # oh
91 1 3 0.425 68.45875 62.497 61.291 # ho
92 1 3 0.425 68.45875 71.476999 61.291 # ho
93 1 3 0.425 73.63875 62.497 61.291 # ho
94 1 3 0.425 73.63875 71.476999 61.291 # ho
95 1 6 -1.1808 67.12675 59.722 61.34 # obos
96 1 6 -1.1808 67.12675 68.702 61.34 # obos
97 1 5 -1.05 72.30675 59.722 61.34 # ob
98 1 5 -1.05 72.30675 68.702 61.34 # ob
99 1 5 -1.05 67.10575 65.272 61.34 # ob
100 1 5 -1.05 67.10575 56.292 61.34 # ob
101 1 5 -1.05 72.28575 65.272 61.34 # ob
102 1 6 -1.1808 72.28575 56.292 61.34 # obos
103 1 5 -1.05 63.59175 58.007 57.077 # ob
104 1 5 -1.05 63.59175 66.987 57.077 # ob
105 1 5 -1.05 68.84075 58.007 57.077 # ob
106 1 5 -1.05 68.84075 66.987 57.077 # ob
107 1 5 -1.05 65.29075 60.054 56.929 # ob
108 1 5 -1.05 65.29075 69.034 56.929 # ob
109 1 5 -1.05 70.47075 60.054 56.929 # ob
110 1 5 -1.05 70.47075 69.034 56.929 # ob
111 1 5 -1.05 65.29075 64.94 56.929 # ob
112 1 5 -1.05 65.29075 55.385 56.929 # ob
113 1 5 -1.05 70.47075 64.94 56.929 # ob
114 1 5 -1.05 70.47075 55.385 56.929 # ob
115 1 8 -1.0809 68.74775 62.497 59.209 # ohs
116 1 8 -1.0809 68.74775 71.476999 59.209 # ohs
117 1 7 -0.95 73.92775 62.497 59.209 # oh
118 1 7 -0.95 73.92775 71.476999 59.209 # oh
119 1 3 0.425 67.79275 62.497 59.209 # ho
120 1 3 0.425 67.79275 71.476999 59.209 # ho
121 1 3 0.425 72.97275 62.497 59.209 # ho
122 1 3 0.425 72.97275 71.476999 59.209 # ho
123 1 5 -1.05 63.94475 59.722 59.159 # ob
124 1 5 -1.05 63.94475 68.702 59.159 # ob
125 1 6 -1.1808 69.12475 59.722 59.159 # obos
126 1 6 -1.1808 69.12475 68.702 59.159 # obos
127 1 5 -1.05 63.96575 65.272 59.159 # ob
128 1 5 -1.05 63.96575 56.292 59.159 # ob
129 1 5 -1.05 69.14575 65.272 59.159 # ob
130 1 6 -1.1808 69.14575 56.292 59.159 # obos
131 1 5 -1.05 64.82075 62.497 63.422 # ob
132 1 5 -1.05 64.82075 71.476999 63.422 # ob
133 1 5 -1.05 70.00075 62.497 63.422 # ob
134 1 5 -1.05 70.00075 71.476999 63.422 # ob
135 1 5 -1.05 68.37175 64.544 63.571 # ob
136 1 5 -1.05 68.37175 73.524 63.571 # ob
137 1 5 -1.05 73.55175 64.544 63.571 # ob
138 1 5 -1.05 68.37175 60.45 63.571 # ob
139 1 5 -1.05 68.37175 69.43 63.571 # ob
140 1 5 -1.05 73.55175 60.45 63.571 # ob
141 1 5 -1.05 73.55175 69.43 63.571 # ob
142 1 8 -1.0809 70.09375 58.007 61.291 # ohs
143 1 7 -0.95 70.09375 66.987 61.291 # oh
144 1 3 0.425 71.04875 58.007 61.291 # ho
145 1 3 0.425 71.04875 66.987 61.291 # ho
146 1 5 -1.05 64.53675 64.212 61.34 # ob
147 1 5 -1.05 64.53675 73.191999 61.34 # ob
148 1 5 -1.05 69.71675 64.212 61.34 # ob
149 1 6 -1.1808 69.71675 73.191999 61.34 # obos
150 1 5 -1.05 64.51575 60.782 61.34 # ob
151 1 5 -1.05 64.51575 69.762 61.34 # ob
152 1 6 -1.1808 69.69575 60.782 61.34 # obos
153 1 6 -1.1808 69.69575 69.762 61.34 # obos
154 1 1 1 66.48675 58.007 52.929 # Na
155 1 1 1 66.48675 66.987 67.571 # Na
156 1 1 1 71.66675 58.007 52.929 # Na
157 1 7 -0.95 63.19175 73.524 63.571 # oh
158 1 7 -0.95 63.19175 69.43 63.571 # oh
159 1 7 -0.95 63.19175 60.45 63.571 # oh
160 1 7 -0.95 63.19175 64.544 63.571 # oh
161 1 7 -0.95 62.70075 55.564 56.929 # oh
162 1 7 -0.95 62.70075 60.45 56.929 # oh
163 1 7 -0.95 62.70075 64.544 56.929 # oh
164 1 7 -0.95 62.70075 69.43 56.929 # oh
165 1 3 0.425 62.19175 73.524 63.571 # ho
166 1 3 0.425 62.19175 69.43 63.571 # ho
167 1 3 0.425 62.19175 64.544 63.571 # ho
168 1 3 0.425 62.19175 60.45 63.571 # ho
169 1 3 0.425 61.70075 55.564 56.929 # ho
170 1 3 0.425 61.70075 60.45 56.929 # ho
171 1 3 0.425 61.70075 64.544 56.929 # ho
172 1 3 0.425 61.70075 69.43 56.929 # ho
173 1 4 1.36 68.12575 79.136 60.25 # mgo
174 1 4 1.36 68.12575 88.116 60.25 # mgo
175 1 2 1.575 73.30575 79.136 60.25 # ao
176 1 2 1.575 73.30575 88.116 60.25 # ao
177 1 2 1.575 68.12575 82.136 60.25 # ao
178 1 2 1.575 68.12575 91.115999 60.25 # ao
179 1 2 1.575 73.30575 82.136 60.25 # ao
180 1 2 1.575 73.30575 91.115999 60.25 # ao
181 1 2 1.575 65.53575 83.626 60.25 # ao
182 1 2 1.575 65.53575 74.646 60.25 # ao
183 1 2 1.575 70.71575 83.626 60.25 # ao
184 1 4 1.36 70.71575 74.646 60.25 # mgo
185 1 2 1.575 65.53575 77.646 60.25 # ao
186 1 2 1.575 65.53575 86.626 60.25 # ao
187 1 2 1.575 70.71575 77.646 60.25 # ao
188 1 2 1.575 70.71575 86.626 60.25 # ao
189 1 9 2.1 66.48675 79.1 57.574 # st
190 1 9 2.1 66.48675 88.08 57.574 # st
191 1 9 2.1 71.66675 79.1 57.574 # st
192 1 9 2.1 71.66675 88.08 57.574 # st
193 1 9 2.1 66.48675 82.172 57.574 # st
194 1 9 2.1 66.48675 91.152 57.574 # st
195 1 9 2.1 71.66675 82.172 57.574 # st
196 1 9 2.1 71.66675 91.152 57.574 # st
197 1 9 2.1 67.17575 83.59 62.927 # st
198 1 9 2.1 67.17575 74.61 62.927 # st
199 1 9 2.1 72.35575 83.59 62.927 # st
200 1 9 2.1 72.35575 74.61 62.927 # st
201 1 9 2.1 67.17575 77.682 62.927 # st
202 1 9 2.1 67.17575 86.662 62.927 # st
203 1 9 2.1 72.35575 77.682 62.927 # st
204 1 9 2.1 72.35575 86.662 62.927 # st
205 1 9 2.1 63.89675 83.59 57.574 # st
206 1 9 2.1 63.89675 74.61 57.574 # st
207 1 9 2.1 69.07675 83.59 57.574 # st
208 1 9 2.1 69.07675 74.61 57.574 # st
209 1 9 2.1 63.89675 77.682 57.574 # st
210 1 9 2.1 63.89675 86.662 57.574 # st
211 1 9 2.1 69.07675 77.682 57.574 # st
212 1 9 2.1 69.07675 86.662 57.574 # st
213 1 9 2.1 64.58575 79.1 62.927 # st
214 1 9 2.1 64.58575 88.08 62.927 # st
215 1 9 2.1 69.76575 79.1 62.927 # st
216 1 9 2.1 69.76575 88.08 62.927 # st
217 1 9 2.1 64.58575 82.172 62.927 # st
218 1 9 2.1 64.58575 91.152 62.927 # st
219 1 9 2.1 69.76575 82.172 62.927 # st
220 1 9 2.1 69.76575 91.152 62.927 # st
221 1 5 -1.05 66.25075 80.636 57.077 # ob
222 1 5 -1.05 66.25075 89.615999 57.077 # ob
223 1 5 -1.05 71.43075 80.636 57.077 # ob
224 1 5 -1.05 71.43075 89.615999 57.077 # ob
225 1 5 -1.05 67.88075 82.683 56.929 # ob
226 1 5 -1.05 67.88075 91.663 56.929 # ob
227 1 5 -1.05 73.06075 82.683 56.929 # ob
228 1 5 -1.05 73.06075 91.663 56.929 # ob
229 1 5 -1.05 67.88075 78.589 56.929 # ob
230 1 5 -1.05 67.88075 87.569 56.929 # ob
231 1 5 -1.05 73.06075 78.589 56.929 # ob
232 1 5 -1.05 73.06075 87.569 56.929 # ob
233 1 7 -0.95 65.53575 76.146 60.25 # oh
234 1 8 -1.0809 71.33775 76.146 59.209 # ohs
235 1 7 -0.95 71.33775 85.126 59.209 # oh
236 1 3 0.425 65.53575 76.146 61.25 # ho
237 1 3 0.425 70.38275 76.146 59.209 # ho
238 1 3 0.425 70.38275 85.126 59.209 # ho
239 1 5 -1.05 66.53475 82.351 59.159 # ob
240 1 5 -1.05 66.53475 91.330999 59.159 # ob
241 1 5 -1.05 71.71475 82.351 59.159 # ob
242 1 6 -1.1808 71.71475 91.330999 59.159 # obos
243 1 6 -1.1808 66.55575 78.921 59.159 # obos
244 1 6 -1.1808 66.55575 87.901 59.159 # obos
245 1 5 -1.05 71.73575 78.921 59.159 # ob
246 1 5 -1.05 71.73575 87.901 59.159 # ob
247 1 5 -1.05 67.41075 76.146 63.422 # ob
248 1 5 -1.05 67.41075 85.126 63.422 # ob
249 1 5 -1.05 72.59075 76.146 63.422 # ob
250 1 5 -1.05 72.59075 85.126 63.422 # ob
251 1 5 -1.05 65.78175 78.193 63.571 # ob
252 1 5 -1.05 65.78175 87.173 63.571 # ob
253 1 5 -1.05 70.96175 78.193 63.571 # ob
254 1 5 -1.05 70.96175 87.173 63.571 # ob
255 1 5 -1.05 65.78175 83.079 63.571 # ob
256 1 5 -1.05 65.78175 73.524 63.571 # ob
257 1 5 -1.05 70.96175 83.079 63.571 # ob
258 1 5 -1.05 70.96175 73.524 63.571 # ob
259 1 8 -1.0809 67.50375 80.636 61.291 # ohs
260 1 8 -1.0809 67.50375 89.615999 61.291 # ohs
261 1 7 -0.95 72.68375 80.636 61.291 # oh
262 1 7 -0.95 72.68375 89.615999 61.291 # oh
263 1 3 0.425 68.45875 80.636 61.291 # ho
264 1 3 0.425 68.45875 89.615999 61.291 # ho
265 1 3 0.425 73.63875 80.636 61.291 # ho
266 1 3 0.425 73.63875 89.615999 61.291 # ho
267 1 6 -1.1808 67.12675 77.861 61.34 # obos
268 1 6 -1.1808 67.12675 86.841 61.34 # obos
269 1 5 -1.05 72.30675 77.861 61.34 # ob
270 1 5 -1.05 72.30675 86.841 61.34 # ob
271 1 5 -1.05 67.10575 83.411 61.34 # ob
272 1 5 -1.05 67.10575 74.431 61.34 # ob
273 1 5 -1.05 72.28575 83.411 61.34 # ob
274 1 6 -1.1808 72.28575 74.431 61.34 # obos
275 1 5 -1.05 63.59175 76.146 57.077 # ob
276 1 5 -1.05 63.59175 85.126 57.077 # ob
277 1 5 -1.05 68.84075 76.146 57.077 # ob
278 1 5 -1.05 68.84075 85.126 57.077 # ob
279 1 5 -1.05 65.29075 78.193 56.929 # ob
280 1 5 -1.05 65.29075 87.173 56.929 # ob
281 1 5 -1.05 70.47075 78.193 56.929 # ob
282 1 5 -1.05 70.47075 87.173 56.929 # ob
283 1 5 -1.05 65.29075 83.079 56.929 # ob
284 1 5 -1.05 65.29075 73.524 56.929 # ob
285 1 5 -1.05 70.47075 83.079 56.929 # ob
286 1 5 -1.05 70.47075 73.524 56.929 # ob
287 1 8 -1.0809 68.74775 80.636 59.209 # ohs
288 1 8 -1.0809 68.74775 89.615999 59.209 # ohs
289 1 7 -0.95 73.92775 80.636 59.209 # oh
290 1 7 -0.95 73.92775 89.615999 59.209 # oh
291 1 3 0.425 67.79275 80.636 59.209 # ho
292 1 3 0.425 67.79275 89.615999 59.209 # ho
293 1 3 0.425 72.97275 80.636 59.209 # ho
294 1 3 0.425 72.97275 89.615999 59.209 # ho
295 1 5 -1.05 63.94475 77.861 59.159 # ob
296 1 5 -1.05 63.94475 86.841 59.159 # ob
297 1 6 -1.1808 69.12475 77.861 59.159 # obos
298 1 6 -1.1808 69.12475 86.841 59.159 # obos
299 1 5 -1.05 63.96575 83.411 59.159 # ob
300 1 5 -1.05 63.96575 74.431 59.159 # ob
301 1 5 -1.05 69.14575 83.411 59.159 # ob
302 1 6 -1.1808 69.14575 74.431 59.159 # obos
303 1 5 -1.05 64.82075 80.636 63.422 # ob
304 1 5 -1.05 64.82075 89.615999 63.422 # ob
305 1 5 -1.05 70.00075 80.636 63.422 # ob
306 1 5 -1.05 70.00075 89.615999 63.422 # ob
307 1 5 -1.05 68.37175 82.683 63.571 # ob
308 1 5 -1.05 68.37175 91.663 63.571 # ob
309 1 5 -1.05 73.55175 82.683 63.571 # ob
310 1 5 -1.05 68.37175 78.589 63.571 # ob
311 1 5 -1.05 68.37175 87.569 63.571 # ob
312 1 5 -1.05 73.55175 78.589 63.571 # ob
313 1 5 -1.05 73.55175 87.569 63.571 # ob
314 1 8 -1.0809 70.09375 76.146 61.291 # ohs
315 1 7 -0.95 70.09375 85.126 61.291 # oh
316 1 3 0.425 71.04875 76.146 61.291 # ho
317 1 3 0.425 71.04875 85.126 61.291 # ho
318 1 5 -1.05 64.53675 82.351 61.34 # ob
319 1 5 -1.05 64.53675 91.330999 61.34 # ob
320 1 5 -1.05 69.71675 82.351 61.34 # ob
321 1 6 -1.1808 69.71675 91.330999 61.34 # obos
322 1 5 -1.05 64.51575 78.921 61.34 # ob
323 1 5 -1.05 64.51575 87.901 61.34 # ob
324 1 6 -1.1808 69.69575 78.921 61.34 # obos
325 1 6 -1.1808 69.69575 87.901 61.34 # obos
326 1 1 1 66.48675 76.146 67.571 # Na
327 1 1 1 66.48675 85.126 52.929 # Na
328 1 1 1 71.66675 76.146 67.571 # Na
329 1 7 -0.95 63.19175 91.663 63.571 # oh
330 1 7 -0.95 63.19175 87.569 63.571 # oh
331 1 7 -0.95 63.19175 78.589 63.571 # oh
332 1 7 -0.95 63.19175 82.683 63.571 # oh
333 1 7 -0.95 62.70075 73.703 56.929 # oh
334 1 7 -0.95 62.70075 78.589 56.929 # oh
335 1 7 -0.95 62.70075 82.683 56.929 # oh
336 1 7 -0.95 62.70075 87.569 56.929 # oh
337 1 3 0.425 62.19175 91.663 63.571 # ho
338 1 3 0.425 62.19175 87.569 63.571 # ho
339 1 3 0.425 62.19175 82.683 63.571 # ho
340 1 3 0.425 62.19175 78.589 63.571 # ho
341 1 3 0.425 61.70075 73.703 56.929 # ho
342 1 3 0.425 61.70075 78.589 56.929 # ho
343 1 3 0.425 61.70075 82.683 56.929 # ho
344 1 3 0.425 61.70075 87.569 56.929 # ho
345 1 4 1.36 68.12575 97.275 60.25 # mgo
346 1 4 1.36 68.12575 106.255 60.25 # mgo
347 1 2 1.575 73.30575 97.275 60.25 # ao
348 1 2 1.575 73.30575 106.255 60.25 # ao
349 1 2 1.575 68.12575 100.275 60.25 # ao
350 1 2 1.575 68.12575 109.254999 60.25 # ao
351 1 2 1.575 73.30575 100.275 60.25 # ao
352 1 2 1.575 73.30575 109.254999 60.25 # ao
353 1 2 1.575 65.53575 101.765 60.25 # ao
354 1 2 1.575 65.53575 92.785 60.25 # ao
355 1 2 1.575 70.71575 101.765 60.25 # ao
356 1 4 1.36 70.71575 92.785 60.25 # mgo
357 1 2 1.575 65.53575 95.785 60.25 # ao
358 1 2 1.575 65.53575 104.765 60.25 # ao
359 1 2 1.575 70.71575 95.785 60.25 # ao
360 1 2 1.575 70.71575 104.765 60.25 # ao
361 1 9 2.1 66.48675 97.239 57.574 # st
362 1 9 2.1 66.48675 106.219 57.574 # st
363 1 9 2.1 71.66675 97.239 57.574 # st
364 1 9 2.1 71.66675 106.219 57.574 # st
365 1 9 2.1 66.48675 100.311 57.574 # st
366 1 9 2.1 66.48675 109.291 57.574 # st
367 1 9 2.1 71.66675 100.311 57.574 # st
368 1 9 2.1 71.66675 109.291 57.574 # st
369 1 9 2.1 67.17575 101.729 62.927 # st
370 1 9 2.1 67.17575 92.749 62.927 # st
371 1 9 2.1 72.35575 101.729 62.927 # st
372 1 9 2.1 72.35575 92.749 62.927 # st
373 1 9 2.1 67.17575 95.821 62.927 # st
374 1 9 2.1 67.17575 104.801 62.927 # st
375 1 9 2.1 72.35575 95.821 62.927 # st
376 1 9 2.1 72.35575 104.801 62.927 # st
377 1 9 2.1 63.89675 101.729 57.574 # st
378 1 9 2.1 63.89675 92.749 57.574 # st
379 1 9 2.1 69.07675 101.729 57.574 # st
380 1 9 2.1 69.07675 92.749 57.574 # st
381 1 9 2.1 63.89675 95.821 57.574 # st
382 1 9 2.1 63.89675 104.801 57.574 # st
383 1 9 2.1 69.07675 95.821 57.574 # st
384 1 9 2.1 69.07675 104.801 57.574 # st
385 1 9 2.1 64.58575 97.239 62.927 # st
386 1 9 2.1 64.58575 106.219 62.927 # st
387 1 9 2.1 69.76575 97.239 62.927 # st
388 1 9 2.1 69.76575 106.219 62.927 # st
389 1 9 2.1 64.58575 100.311 62.927 # st
390 1 9 2.1 64.58575 109.291 62.927 # st
391 1 9 2.1 69.76575 100.311 62.927 # st
392 1 9 2.1 69.76575 109.291 62.927 # st
393 1 5 -1.05 66.25075 98.775 57.077 # ob
394 1 5 -1.05 66.25075 107.754999 57.077 # ob
395 1 5 -1.05 71.43075 98.775 57.077 # ob
396 1 5 -1.05 71.43075 107.754999 57.077 # ob
397 1 5 -1.05 67.88075 100.822 56.929 # ob
398 1 5 -1.05 67.88075 109.802 56.929 # ob
399 1 5 -1.05 73.06075 100.822 56.929 # ob
400 1 5 -1.05 73.06075 109.802 56.929 # ob
401 1 5 -1.05 67.88075 96.728 56.929 # ob
402 1 5 -1.05 67.88075 105.708 56.929 # ob
403 1 5 -1.05 73.06075 96.728 56.929 # ob
404 1 5 -1.05 73.06075 105.708 56.929 # ob
405 1 7 -0.95 65.53575 94.285 60.25 # oh
406 1 8 -1.0809 71.33775 94.285 59.209 # ohs
407 1 7 -0.95 71.33775 103.265 59.209 # oh
408 1 3 0.425 65.53575 94.285 61.25 # ho
409 1 3 0.425 70.38275 94.285 59.209 # ho
410 1 3 0.425 70.38275 103.265 59.209 # ho
411 1 5 -1.05 66.53475 100.49 59.159 # ob
412 1 5 -1.05 66.53475 109.469999 59.159 # ob
413 1 5 -1.05 71.71475 100.49 59.159 # ob
414 1 6 -1.1808 71.71475 109.469999 59.159 # obos
415 1 6 -1.1808 66.55575 97.06 59.159 # obos
416 1 6 -1.1808 66.55575 106.04 59.159 # obos
417 1 5 -1.05 71.73575 97.06 59.159 # ob
418 1 5 -1.05 71.73575 106.04 59.159 # ob
419 1 5 -1.05 67.41075 94.285 63.422 # ob
420 1 5 -1.05 67.41075 103.265 63.422 # ob
421 1 5 -1.05 72.59075 94.285 63.422 # ob
422 1 5 -1.05 72.59075 103.265 63.422 # ob
423 1 5 -1.05 65.78175 96.332 63.571 # ob
424 1 5 -1.05 65.78175 105.312 63.571 # ob
425 1 5 -1.05 70.96175 96.332 63.571 # ob
426 1 5 -1.05 70.96175 105.312 63.571 # ob
427 1 5 -1.05 65.78175 101.218 63.571 # ob
428 1 5 -1.05 65.78175 91.663 63.571 # ob
429 1 5 -1.05 70.96175 101.218 63.571 # ob
430 1 5 -1.05 70.96175 91.663 63.571 # ob
431 1 8 -1.0809 67.50375 98.775 61.291 # ohs
432 1 8 -1.0809 67.50375 107.754999 61.291 # ohs
433 1 7 -0.95 72.68375 98.775 61.291 # oh
434 1 7 -0.95 72.68375 107.754999 61.291 # oh
435 1 3 0.425 68.45875 98.775 61.291 # ho
436 1 3 0.425 68.45875 107.754999 61.291 # ho
437 1 3 0.425 73.63875 98.775 61.291 # ho
438 1 3 0.425 73.63875 107.754999 61.291 # ho
439 1 6 -1.1808 67.12675 96 61.34 # obos
440 1 6 -1.1808 67.12675 104.98 61.34 # obos
441 1 5 -1.05 72.30675 96 61.34 # ob
442 1 5 -1.05 72.30675 104.98 61.34 # ob
443 1 5 -1.05 67.10575 101.55 61.34 # ob
444 1 5 -1.05 67.10575 92.57 61.34 # ob
445 1 5 -1.05 72.28575 101.55 61.34 # ob
446 1 6 -1.1808 72.28575 92.57 61.34 # obos
447 1 5 -1.05 63.59175 94.285 57.077 # ob
448 1 5 -1.05 63.59175 103.265 57.077 # ob
449 1 5 -1.05 68.84075 94.285 57.077 # ob
450 1 5 -1.05 68.84075 103.265 57.077 # ob
451 1 5 -1.05 65.29075 96.332 56.929 # ob
452 1 5 -1.05 65.29075 105.312 56.929 # ob
453 1 5 -1.05 70.47075 96.332 56.929 # ob
454 1 5 -1.05 70.47075 105.312 56.929 # ob
455 1 5 -1.05 65.29075 101.218 56.929 # ob
456 1 5 -1.05 65.29075 91.663 56.929 # ob
457 1 5 -1.05 70.47075 101.218 56.929 # ob
458 1 5 -1.05 70.47075 91.663 56.929 # ob
459 1 8 -1.0809 68.74775 98.775 59.209 # ohs
460 1 8 -1.0809 68.74775 107.754999 59.209 # ohs
461 1 7 -0.95 73.92775 98.775 59.209 # oh
462 1 7 -0.95 73.92775 107.754999 59.209 # oh
463 1 3 0.425 67.79275 98.775 59.209 # ho
464 1 3 0.425 67.79275 107.754999 59.209 # ho
465 1 3 0.425 72.97275 98.775 59.209 # ho
466 1 3 0.425 72.97275 107.754999 59.209 # ho
467 1 5 -1.05 63.94475 96 59.159 # ob
468 1 5 -1.05 63.94475 104.98 59.159 # ob
469 1 6 -1.1808 69.12475 96 59.159 # obos
470 1 6 -1.1808 69.12475 104.98 59.159 # obos
471 1 5 -1.05 63.96575 101.55 59.159 # ob
472 1 5 -1.05 63.96575 92.57 59.159 # ob
473 1 5 -1.05 69.14575 101.55 59.159 # ob
474 1 6 -1.1808 69.14575 92.57 59.159 # obos
475 1 5 -1.05 64.82075 98.775 63.422 # ob
476 1 5 -1.05 64.82075 107.754999 63.422 # ob
477 1 5 -1.05 70.00075 98.775 63.422 # ob
478 1 5 -1.05 70.00075 107.754999 63.422 # ob
479 1 5 -1.05 68.37175 100.822 63.571 # ob
480 1 5 -1.05 68.37175 109.802 63.571 # ob
481 1 5 -1.05 73.55175 100.822 63.571 # ob
482 1 5 -1.05 68.37175 96.728 63.571 # ob
483 1 5 -1.05 68.37175 105.708 63.571 # ob
484 1 5 -1.05 73.55175 96.728 63.571 # ob
485 1 5 -1.05 73.55175 105.708 63.571 # ob
486 1 8 -1.0809 70.09375 94.285 61.291 # ohs
487 1 7 -0.95 70.09375 103.265 61.291 # oh
488 1 3 0.425 71.04875 94.285 61.291 # ho
489 1 3 0.425 71.04875 103.265 61.291 # ho
490 1 5 -1.05 64.53675 100.49 61.34 # ob
491 1 5 -1.05 64.53675 109.469999 61.34 # ob
492 1 5 -1.05 69.71675 100.49 61.34 # ob
493 1 6 -1.1808 69.71675 109.469999 61.34 # obos
494 1 5 -1.05 64.51575 97.06 61.34 # ob
495 1 5 -1.05 64.51575 106.04 61.34 # ob
496 1 6 -1.1808 69.69575 97.06 61.34 # obos
497 1 6 -1.1808 69.69575 106.04 61.34 # obos
498 1 1 1 66.48675 94.285 52.929 # Na
499 1 1 1 66.48675 103.265 67.571 # Na
500 1 1 1 71.66675 94.285 52.929 # Na
501 1 7 -0.95 63.19175 109.802 63.571 # oh
502 1 7 -0.95 63.19175 105.708 63.571 # oh
503 1 7 -0.95 63.19175 96.728 63.571 # oh
504 1 7 -0.95 63.19175 100.822 63.571 # oh
505 1 7 -0.95 62.70075 91.842 56.929 # oh
506 1 7 -0.95 62.70075 96.728 56.929 # oh
507 1 7 -0.95 62.70075 100.822 56.929 # oh
508 1 7 -0.95 62.70075 105.708 56.929 # oh
509 1 3 0.425 62.19175 109.802 63.571 # ho
510 1 3 0.425 62.19175 105.708 63.571 # ho
511 1 3 0.425 62.19175 100.822 63.571 # ho
512 1 3 0.425 62.19175 96.728 63.571 # ho
513 1 3 0.425 61.70075 91.842 56.929 # ho
514 1 3 0.425 61.70075 96.728 56.929 # ho
515 1 3 0.425 61.70075 100.822 56.929 # ho
516 1 3 0.425 61.70075 105.708 56.929 # ho
517 1 4 1.36 68.12575 115.414 60.25 # mgo
518 1 4 1.36 68.12575 124.394 60.25 # mgo
519 1 2 1.575 73.30575 115.414 60.25 # ao
520 1 2 1.575 73.30575 124.394 60.25 # ao
521 1 2 1.575 68.12575 118.414 60.25 # ao
522 1 2 1.575 68.12575 127.393999 60.25 # ao
523 1 2 1.575 73.30575 118.414 60.25 # ao
524 1 2 1.575 73.30575 127.393999 60.25 # ao
525 1 2 1.575 65.53575 119.904 60.25 # ao
526 1 2 1.575 65.53575 110.924 60.25 # ao
527 1 2 1.575 70.71575 119.904 60.25 # ao
528 1 4 1.36 70.71575 110.924 60.25 # mgo
529 1 2 1.575 65.53575 113.924 60.25 # ao
530 1 2 1.575 65.53575 122.904 60.25 # ao
531 1 2 1.575 70.71575 113.924 60.25 # ao
532 1 2 1.575 70.71575 122.904 60.25 # ao
533 1 9 2.1 66.48675 115.378 57.574 # st
534 1 9 2.1 66.48675 124.358 57.574 # st
535 1 9 2.1 71.66675 115.378 57.574 # st
536 1 9 2.1 71.66675 124.358 57.574 # st
537 1 9 2.1 66.48675 118.45 57.574 # st
538 1 9 2.1 66.48675 127.43 57.574 # st
539 1 9 2.1 71.66675 118.45 57.574 # st
540 1 9 2.1 71.66675 127.43 57.574 # st
541 1 9 2.1 67.17575 119.868 62.927 # st
542 1 9 2.1 67.17575 110.888 62.927 # st
543 1 9 2.1 72.35575 119.868 62.927 # st
544 1 9 2.1 72.35575 110.888 62.927 # st
545 1 9 2.1 67.17575 113.96 62.927 # st
546 1 9 2.1 67.17575 122.94 62.927 # st
547 1 9 2.1 72.35575 113.96 62.927 # st
548 1 9 2.1 72.35575 122.94 62.927 # st
549 1 9 2.1 63.89675 119.868 57.574 # st
550 1 9 2.1 63.89675 110.888 57.574 # st
551 1 9 2.1 69.07675 119.868 57.574 # st
552 1 9 2.1 69.07675 110.888 57.574 # st
553 1 9 2.1 63.89675 113.96 57.574 # st
554 1 9 2.1 63.89675 122.94 57.574 # st
555 1 9 2.1 69.07675 113.96 57.574 # st
556 1 9 2.1 69.07675 122.94 57.574 # st
557 1 9 2.1 64.58575 115.378 62.927 # st
558 1 9 2.1 64.58575 124.358 62.927 # st
559 1 9 2.1 69.76575 115.378 62.927 # st
560 1 9 2.1 69.76575 124.358 62.927 # st
561 1 9 2.1 64.58575 118.45 62.927 # st
562 1 9 2.1 64.58575 127.43 62.927 # st
563 1 9 2.1 69.76575 118.45 62.927 # st
564 1 9 2.1 69.76575 127.43 62.927 # st
565 1 5 -1.05 66.25075 116.914 57.077 # ob
566 1 5 -1.05 66.25075 125.893999 57.077 # ob
567 1 5 -1.05 71.43075 116.914 57.077 # ob
568 1 5 -1.05 71.43075 125.893999 57.077 # ob
569 1 5 -1.05 67.88075 118.961 56.929 # ob
570 1 5 -1.05 67.88075 127.941 56.929 # ob
571 1 5 -1.05 73.06075 118.961 56.929 # ob
572 1 5 -1.05 73.06075 127.941 56.929 # ob
573 1 5 -1.05 67.88075 114.867 56.929 # ob
574 1 5 -1.05 67.88075 123.847 56.929 # ob
575 1 5 -1.05 73.06075 114.867 56.929 # ob
576 1 5 -1.05 73.06075 123.847 56.929 # ob
577 1 7 -0.95 65.53575 112.424 60.25 # oh
578 1 8 -1.0809 71.33775 112.424 59.209 # ohs
579 1 7 -0.95 71.33775 121.404 59.209 # oh
580 1 3 0.425 65.53575 112.424 61.25 # ho
581 1 3 0.425 70.38275 112.424 59.209 # ho
582 1 3 0.425 70.38275 121.404 59.209 # ho
583 1 5 -1.05 66.53475 118.629 59.159 # ob
584 1 5 -1.05 66.53475 127.608999 59.159 # ob
585 1 5 -1.05 71.71475 118.629 59.159 # ob
586 1 6 -1.1808 71.71475 127.608999 59.159 # obos
587 1 6 -1.1808 66.55575 115.199 59.159 # obos
588 1 6 -1.1808 66.55575 124.179 59.159 # obos
589 1 5 -1.05 71.73575 115.199 59.159 # ob
590 1 5 -1.05 71.73575 124.179 59.159 # ob
591 1 5 -1.05 67.41075 112.424 63.422 # ob
592 1 5 -1.05 67.41075 121.404 63.422 # ob
593 1 5 -1.05 72.59075 112.424 63.422 # ob
594 1 5 -1.05 72.59075 121.404 63.422 # ob
595 1 5 -1.05 65.78175 114.471 63.571 # ob
596 1 5 -1.05 65.78175 123.451 63.571 # ob
597 1 5 -1.05 70.96175 114.471 63.571 # ob
598 1 5 -1.05 70.96175 123.451 63.571 # ob
599 1 5 -1.05 65.78175 119.357 63.571 # ob
600 1 5 -1.05 65.78175 109.802 63.571 # ob
601 1 5 -1.05 70.96175 119.357 63.571 # ob
602 1 5 -1.05 70.96175 109.802 63.571 # ob
603 1 8 -1.0809 67.50375 116.914 61.291 # ohs
604 1 8 -1.0809 67.50375 125.893999 61.291 # ohs
605 1 7 -0.95 72.68375 116.914 61.291 # oh
606 1 7 -0.95 72.68375 125.893999 61.291 # oh
607 1 3 0.425 68.45875 116.914 61.291 # ho
608 1 3 0.425 68.45875 125.893999 61.291 # ho
609 1 3 0.425 73.63875 116.914 61.291 # ho
610 1 3 0.425 73.63875 125.893999 61.291 # ho
611 1 6 -1.1808 67.12675 114.139 61.34 # obos
612 1 6 -1.1808 67.12675 123.119 61.34 # obos
613 1 5 -1.05 72.30675 114.139 61.34 # ob
614 1 5 -1.05 72.30675 123.119 61.34 # ob
615 1 5 -1.05 67.10575 119.689 61.34 # ob
616 1 5 -1.05 67.10575 110.709 61.34 # ob
617 1 5 -1.05 72.28575 119.689 61.34 # ob
618 1 6 -1.1808 72.28575 110.709 61.34 # obos
619 1 5 -1.05 63.59175 112.424 57.077 # ob
620 1 5 -1.05 63.59175 121.404 57.077 # ob
621 1 5 -1.05 68.84075 112.424 57.077 # ob
622 1 5 -1.05 68.84075 121.404 57.077 # ob
623 1 5 -1.05 65.29075 114.471 56.929 # ob
624 1 5 -1.05 65.29075 123.451 56.929 # ob
625 1 5 -1.05 70.47075 114.471 56.929 # ob
626 1 5 -1.05 70.47075 123.451 56.929 # ob
627 1 5 -1.05 65.29075 119.357 56.929 # ob
628 1 5 -1.05 65.29075 109.802 56.929 # ob
629 1 5 -1.05 70.47075 119.357 56.929 # ob
630 1 5 -1.05 70.47075 109.802 56.929 # ob
631 1 8 -1.0809 68.74775 116.914 59.209 # ohs
632 1 8 -1.0809 68.74775 125.893999 59.209 # ohs
633 1 7 -0.95 73.92775 116.914 59.209 # oh
634 1 7 -0.95 73.92775 125.893999 59.209 # oh
635 1 3 0.425 67.79275 116.914 59.209 # ho
636 1 3 0.425 67.79275 125.893999 59.209 # ho
637 1 3 0.425 72.97275 116.914 59.209 # ho
638 1 3 0.425 72.97275 125.893999 59.209 # ho
639 1 5 -1.05 63.94475 114.139 59.159 # ob
640 1 5 -1.05 63.94475 123.119 59.159 # ob
641 1 6 -1.1808 69.12475 114.139 59.159 # obos
642 1 6 -1.1808 69.12475 123.119 59.159 # obos
643 1 5 -1.05 63.96575 119.689 59.159 # ob
644 1 5 -1.05 63.96575 110.709 59.159 # ob
645 1 5 -1.05 69.14575 119.689 59.159 # ob
646 1 6 -1.1808 69.14575 110.709 59.159 # obos
647 1 5 -1.05 64.82075 116.914 63.422 # ob
648 1 5 -1.05 64.82075 125.893999 63.422 # ob
649 1 5 -1.05 70.00075 116.914 63.422 # ob
650 1 5 -1.05 70.00075 125.893999 63.422 # ob
651 1 5 -1.05 68.37175 118.961 63.571 # ob
652 1 5 -1.05 68.37175 127.941 63.571 # ob
653 1 5 -1.05 73.55175 118.961 63.571 # ob
654 1 5 -1.05 68.37175 114.867 63.571 # ob
655 1 5 -1.05 68.37175 123.847 63.571 # ob
656 1 5 -1.05 73.55175 114.867 63.571 # ob
657 1 5 -1.05 73.55175 123.847 63.571 # ob
658 1 8 -1.0809 70.09375 112.424 61.291 # ohs
659 1 7 -0.95 70.09375 121.404 61.291 # oh
660 1 3 0.425 71.04875 112.424 61.291 # ho
661 1 3 0.425 71.04875 121.404 61.291 # ho
662 1 5 -1.05 64.53675 118.629 61.34 # ob
663 1 5 -1.05 64.53675 127.608999 61.34 # ob
664 1 5 -1.05 69.71675 118.629 61.34 # ob
665 1 6 -1.1808 69.71675 127.608999 61.34 # obos
666 1 5 -1.05 64.51575 115.199 61.34 # ob
667 1 5 -1.05 64.51575 124.179 61.34 # ob
668 1 6 -1.1808 69.69575 115.199 61.34 # obos
669 1 6 -1.1808 69.69575 124.179 61.34 # obos
670 1 1 1 66.48675 112.424 67.571 # Na
671 1 1 1 66.48675 121.404 52.929 # Na
672 1 1 1 71.66675 112.424 67.571 # Na
673 1 7 -0.95 63.19175 127.941 63.571 # oh
674 1 7 -0.95 63.19175 123.847 63.571 # oh
675 1 7 -0.95 63.19175 114.867 63.571 # oh
676 1 7 -0.95 63.19175 118.961 63.571 # oh
677 1 7 -0.95 62.70075 109.981 56.929 # oh
678 1 7 -0.95 62.70075 114.867 56.929 # oh
679 1 7 -0.95 62.70075 118.961 56.929 # oh
680 1 7 -0.95 62.70075 123.847 56.929 # oh
681 1 3 0.425 62.19175 127.941 63.571 # ho
682 1 3 0.425 62.19175 123.847 63.571 # ho
683 1 3 0.425 62.19175 118.961 63.571 # ho
684 1 3 0.425 62.19175 114.867 63.571 # ho