# LAMMPS data file
10692 atoms
0 bonds
0 angles
0 dihedrals
0 impropers

2 atom types
0 bond types
0 angle types
0 dihedral types
0 improper types

     0.000000 180.0000   xlo xhi
     0.000000 180.0000   ylo yhi
     0.000000 180.0000   zlo zhi

Masses

 1 39.0983   #   K
 2 35.4527   #   Cl  

Atoms

1 1 1 1 4.482 4.859 160.332 # K
2 1 1 1 2.132 16.216 163.108 # K
3 1 1 1 12.807 10.379 153.034 # K
4 1 1 1 4.79 9.706 81.443 # K
5 1 1 1 3.966 13.511 136.494 # K
6 1 1 1 6.557 8.104 8.303 # K
7 1 1 1 8.458 18.256 27.459 # K
8 1 1 1 7.5 4.493 168.069 # K
9 1 1 1 6.742 18.75 20.654 # K
10 1 1 1 6.978 17.538 44.993 # K
11 1 1 1 9.006 6.957 147.135 # K
12 1 1 1 1.912 5.486 79.484 # K
13 1 1 1 4.942 15.148 172.582 # K
14 1 1 1 5.334 10.096 176.322 # K
15 1 1 1 10.184 6.053 15.036 # K
16 1 1 1 10.78 20.061 155.866 # K
17 1 1 1 -0.007 9.751 81.298 # K
18 1 1 1 8.074 19.602 75.336 # K
19 1 1 1 0.502 9.422 158.52 # K
20 1 1 1 1.186 10.141 166.903 # K
21 1 1 1 9.441 1.356 39.18 # K
22 1 1 1 7.402 1.456 43.284 # K
23 1 1 1 5.081 5.651 99.08 # K
24 1 1 1 5.234 14.003 38.831 # K
25 1 1 1 1.842 7.829 155.854 # K
26 1 1 1 10.111 7.761 78.687 # K
27 1 1 1 0.835 1.572 36.444 # K
28 1 1 1 7.321 5.173 24.033 # K
29 1 1 1 4.176 15.279 8.91 # K
30 1 1 1 9.967 18.327 158.224 # K
31 1 1 1 2.322 3.314 142.996 # K
32 1 1 1 5.35 2.363 169.264 # K
33 1 1 1 3.681 8.054 41.793 # K
34 1 2 -1 4.196 12.376 17.891 # Cl
35 1 2 -1 8.318 1.802 174.167 # Cl
36 1 2 -1 8.304 15.103 12.34 # Cl
37 1 2 -1 6.792 7.541 171.51 # Cl
38 1 2 -1 3.459 8.442 10.135 # Cl
39 1 2 -1 4.445 15.561 21.316 # Cl
40 1 2 -1 8.341 15.519 82.316 # Cl
41 1 2 -1 6.475 3.875 138.27 # Cl
42 1 2 -1 5.214 10.671 165.191 # Cl
43 1 2 -1 2.926 11.395 27.071 # Cl
44 1 2 -1 5.415 17.781 30.45 # Cl
45 1 2 -1 9.385 19.616 149.809 # Cl
46 1 2 -1 1.849 10.277 83.952 # Cl
47 1 2 -1 2.217 0.367 72.38 # Cl
48 1 2 -1 0.23 9.057 46.484 # Cl
49 1 2 -1 6.859 12.916 177.504 # Cl
50 1 2 -1 9.48 14.042 135.468 # Cl
51 1 2 -1 1.837 17.857 27.428 # Cl
52 1 2 -1 5.148 13.237 35.476 # Cl
53 1 2 -1 1.805 17.409 33.516 # Cl
54 1 2 -1 6.909 11.27 38.025 # Cl
55 1 2 -1 -1.334 11.204 162.852 # Cl
56 1 2 -1 3.144 4.651 82.621 # Cl
57 1 2 -1 10.23 1.917 28.451 # Cl
58 1 2 -1 5.071 12.691 151.821 # Cl
59 1 2 -1 1.919 -0.435 6.64 # Cl
60 1 2 -1 7.072 8.087 25.725 # Cl
61 1 2 -1 3.957 16.634 136.978 # Cl
62 1 2 -1 7.689 6.55 4.726 # Cl
63 1 2 -1 3.555 17.971 173.857 # Cl
64 1 2 -1 0.876 4.121 85.375 # Cl
65 1 2 -1 3.367 7.162 140.329 # Cl
66 1 2 -1 6.663 2.785 145.359 # Cl
67 1 1 1 4.482 24.859 160.332 # K
68 1 1 1 2.132 36.216 163.108 # K
69 1 1 1 12.807 30.379 153.034 # K
70 1 1 1 4.79 29.706 81.443 # K
71 1 1 1 3.966 33.511 136.494 # K
72 1 1 1 6.557 28.104 8.303 # K
73 1 1 1 8.458 38.256 27.459 # K
74 1 1 1 7.5 24.493 168.069 # K
75 1 1 1 6.742 38.75 20.654 # K
76 1 1 1 6.978 37.538 44.993 # K
77 1 1 1 9.006 26.957 147.135 # K
78 1 1 1 1.912 25.486 79.484 # K
79 1 1 1 4.942 35.148 172.582 # K
80 1 1 1 5.334 30.096 176.322 # K
81 1 1 1 10.184 26.053 15.036 # K
82 1 1 1 10.78 40.061 155.866 # K
83 1 1 1 -0.007 29.751 81.298 # K
84 1 1 1 8.074 39.602 75.336 # K
85 1 1 1 0.502 29.422 158.52 # K
86 1 1 1 1.186 30.141 166.903 # K
87 1 1 1 9.441 21.356 39.18 # K
88 1 1 1 7.402 21.456 43.284 # K
89 1 1 1 5.081 25.651 99.08 # K
90 1 1 1 5.234 34.003 38.831 # K
91 1 1 1 1.842 27.829 155.854 # K
92 1 1 1 10.111 27.761 78.687 # K
93 1 1 1 0.835 21.572 36.444 # K
94 1 1 1 7.321 25.173 24.033 # K
95 1 1 1 4.176 35.279 8.91 # K
96 1 1 1 9.967 38.327 158.224 # K
97 1 1 1 2.322 23.314 142.996 # K
98 1 1 1 5.35 22.363 169.264 # K
99 1 1 1 3.681 28.054 41.793 # K
100 1 2 -1 4.196 32.376 17.891 # Cl
101 1 2 -1 8.318 21.802 174.167 # Cl
102 1 2 -1 8.304 35.103 12.34 # Cl
103 1 2 -1 6.792 27.541 171.51 # Cl
104 1 2 -1 3.459 28.442 10.135 # Cl
105 1 2 -1 4.445 35.561 21.316 # Cl
106 1 2 -1 8.341 35.519 82.316 # Cl
107 1 2 -1 6.475 23.875 138.27 # Cl
108 1 2 -1 5.214 30.671 165.191 # Cl
109 1 2 -1 2.926 31.395 27.071 # Cl
110 1 2 -1 5.415 37.781 30.45 # Cl
111 1 2 -1 9.385 39.616 149.809 # Cl
112 1 2 -1 1.849 30.277 83.952 # Cl
113 1 2 -1 2.217 20.367 72.38 # Cl
114 1 2 -1 0.23 29.057 46.484 # Cl
115 1 2 -1 6.859 32.916 177.504 # Cl
116 1 2 -1 9.48 34.042 135.468 # Cl
117 1 2 -1 1.837 37.857 27.428 # Cl
118 1 2 -1 5.148 33.237 35.476 # Cl
119 1 2 -1 1.805 37.409 33.516 # Cl
120 1 2 -1 6.909 31.27 38.025 # Cl
121 1 2 -1 -1.334 31.204 162.852 # Cl
122 1 2 -1 3.144 24.651 82.621 # Cl
123 1 2 -1 10.23 21.917 28.451 # Cl
124 1 2 -1 5.071 32.691 151.821 # Cl
125 1 2 -1 1.919 19.565 6.64 # Cl
126 1 2 -1 7.072 28.087 25.725 # Cl
127 1 2 -1 3.957 36.634 136.978 # Cl
128 1 2 -1 7.689 26.55 4.726 # Cl
129 1 2 -1 3.555 37.971 173.857 # Cl
130 1 2 -1 0.876 24.121 85.375 # Cl
131 1 2 -1 3.367 27.162 140.329 # Cl
132 1 2 -1 6.663 22.785 145.359 # Cl
133 1 1 1 4.482 44.859 160.332 # K
134 1 1 1 2.132 56.216 163.108 # K
135 1 1 1 12.807 50.379 153.034 # K
136 1 1 1 4.79 49.706 81.443 # K
137 1 1 1 3.966 53.511 136.494 # K
138 1 1 1 6.557 48.104 8.303 # K
139 1 1 1 8.458 58.256 27.459 # K
140 1 1 1 7.5 44.493 168.069 # K
141 1 1 1 6.742 58.75 20.654 # K
142 1 1 1 6.978 57.538 44.993 # K
143 1 1 1 9.006 46.957 147.135 # K
144 1 1 1 1.912 45.486 79.484 # K
145 1 1 1 4.942 55.148 172.582 # K
146 1 1 1 5.334 50.096 176.322 # K
147 1 1 1 10.184 46.053 15.036 # K
148 1 1 1 10.78 60.061 155.866 # K
149 1 1 1 -0.007 49.751 81.298 # K
150 1 1 1 8.074 59.602 75.336 # K
151 1 1 1 0.502 49.422 158.52 # K
152 1 1 1 1.186 50.141 166.903 # K
153 1 1 1 9.441 41.356 39.18 # K
154 1 1 1 7.402 41.456 43.284 # K
155 1 1 1 5.081 45.651 99.08 # K
156 1 1 1 5.234 54.003 38.831 # K
157 1 1 1 1.842 47.829 155.854 # K
158 1 1 1 10.111 47.761 78.687 # K
159 1 1 1 0.835 41.572 36.444 # K
160 1 1 1 7.321 45.173 24.033 # K
161 1 1 1 4.176 55.279 8.91 # K
162 1 1 1 9.967 58.327 158.224 # K
163 1 1 1 2.322 43.314 142.996 # K
164 1 1 1 5.35 42.363 169.264 # K
165 1 1 1 3.681 48.054 41.793 # K
166 1 2 -1 4.196 52.376 17.891 # Cl
167 1 2 -1 8.318 41.802 174.167 # Cl
168 1 2 -1 8.304 55.103 12.34 # Cl
169 1 2 -1 6.792 47.541 171.51 # Cl
170 1 2 -1 3.459 48.442 10.135 # Cl
171 1 2 -1 4.445 55.561 21.316 # Cl
172 1 2 -1 8.341 55.519 82.316 # Cl
173 1 2 -1 6.475 43.875 138.27 # Cl
174 1 2 -1 5.214 50.671 165.191 # Cl
175 1 2 -1 2.926 51.395 27.071 # Cl
176 1 2 -1 5.415 57.781 30.45 # Cl
177 1 2 -1 9.385 59.616 149.809 # Cl
178 1 2 -1 1.849 50.277 83.952 # Cl
179 1 2 -1 2.217 40.367 72.38 # Cl
180 1 2 -1 0.23 49.057 46.484 # Cl
181 1 2 -1 6.859 52.916 177.504 # Cl
182 1 2 -1 9.48 54.042 135.468 # Cl
183 1 2 -1 1.837 57.857 27.428 # Cl
184 1 2 -1 5.148 53.237 35.476 # Cl
185 1 2 -1 1.805 57.409 33.516 # Cl
186 1 2 -1 6.909 51.27 38.025 # Cl
187 1 2 -1 -1.334 51.204 162.852 # Cl
188 1 2 -1 3.144 44.651 82.621 # Cl
189 1 2 -1 10.23 41.917 28.451 # Cl
190 1 2 -1 5.071 52.691 151.821 # Cl
191 1 2 -1 1.919 39.565 6.64 # Cl
192 1 2 -1 7.072 48.087 25.725 # Cl
193 1 2 -1 3.957 56.634 136.978 # Cl
194 1 2 -1 7.689 46.55 4.726 # Cl
195 1 2 -1 3.555 57.971 173.857 # Cl
196 1 2 -1 0.876 44.121 85.375 # Cl
197 1 2 -1 3.367 47.162 140.329 # Cl
198 1 2 -1 6.663 42.785 145.359 # Cl
199 1 1 1 4.482 64.859 160.332 # K
200 1 1 1 2.132 76.216 163.108 # K
201 1 1 1 12.807 70.379 153.034 # K
202 1 1 1 4.79 69.706 81.443 # K
203 1 1 1 3.966 73.511 136.494 # K
204 1 1 1 6.557 68.104 8.303 # K
205 1 1 1 8.458 78.256 27.459 # K
206 1 1 1 7.5 64.493 168.069 # K
207 1 1 1 6.742 78.75 20.654 # K
208 1 1 1 6.978 77.538 44.993 # K
209 1 1 1 9.006 66.957 147.135 # K
210 1 1 1 1.912 65.486 79.484 # K
211 1 1 1 4.942 75.148 172.582 # K
212 1 1 1 5.334 70.096 176.322 # K
213 1 1 1 10.184 66.053 15.036 # K
214 1 1 1 10.78 80.061 155.866 # K
215 1 1 1 -0.007 69.751 81.298 # K
216 1 1 1 8.074 79.602 75.336 # K
217 1 1 1 0.502 69.422 158.52 # K
218 1 1 1 1.186 70.141 166.903 # K
219 1 1 1 9.441 61.356 39.18 # K
220 1 1 1 7.402 61.456 43.284 # K
221 1 1 1 5.081 65.651 99.08 # K
222 1 1 1 5.234 74.003 38.831 # K
223 1 1 1 1.842 67.829 155.854 # K
224 1 1 1 10.111 67.761 78.687 # K
225 1 1 1 0.835 61.572 36.444 # K
226 1 1 1 7.321 65.173 24.033 # K
227 1 1 1 4.176 75.279 8.91 # K
228 1 1 1 9.967 78.327 158.224 # K
229 1 1 1 2.322 63.314 142.996 # K
230 1 1 1 5.35 62.363 169.264 # K
231 1 1 1 3.681 68.054 41.793 # K
232 1 2 -1 4.196 72.376 17.891 # Cl
233 1 2 -1 8.318 61.802 174.167 # Cl
234 1 2 -1 8.304 75.103 12.34 # Cl
235 1 2 -1 6.792 67.541 171.51 # Cl
236 1 2 -1 3.459 68.442 10.135 # Cl
237 1 2 -1 4.445 75.561 21.316 # Cl
238 1 2 -1 8.341 75.519 82.316 # Cl
239 1 2 -1 6.475 63.875 138.27 # Cl
240 1 2 -1 5.214 70.671 165.191 # Cl
241 1 2 -1 2.926 71.395 27.071 # Cl
242 1 2 -1 5.415 77.781 30.45 # Cl
243 1 2 -1 9.385 79.616 149.809 # Cl
244 1 2 -1 1.849 70.277 83.952 # Cl
245 1 2 -1 2.217 60.367 72.38 # Cl
246 1 2 -1 0.23 69.057 46.484 # Cl
247 1 2 -1 6.859 72.916 177.504 # Cl
248 1 2 -1 9.48 74.042 135.468 # Cl
249 1 2 -1 1.837 77.857 27.428 # Cl
250 1 2 -1 5.148 73.237 35.476 # Cl
251 1 2 -1 1.805 77.409 33.516 # Cl
252 1 2 -1 6.909 71.27 38.025 # Cl
253 1 2 -1 -1.334 71.204 162.852 # Cl
254 1 2 -1 3.144 64.651 82.621 # Cl
255 1 2 -1 10.23 61.917 28.451 # Cl
256 1 2 -1 5.071 72.691 151.821 # Cl
257 1 2 -1 1.919 59.565 6.64 # Cl
258 1 2 -1 7.072 68.087 25.725 # Cl
259 1 2 -1 3.957 76.634 136.978 # Cl
260 1 2 -1 7.689 66.55 4.726 # Cl
261 1 2 -1 3.555 77.971 173.857 # Cl
262 1 2 -1 0.876 64.121 85.375 # Cl
263 1 2 -1 3.367 67.162 140.329 # Cl
264 1 2 -1 6.663 62.785 145.359 # Cl
265 1 1 1 4.482 84.859 160.332 # K
266 1 1 1 2.132 96.216 163.108 # K
267 1 1 1 12.807 90.379 153.034 # K
268 1 1 1 4.79 89.706 81.443 # K
269 1 1 1 3.966 93.511 136.494 # K
270 1 1 1 6.557 88.104 8.303 # K
271 1 1 1 8.458 98.256 27.459 # K
272 1 1 1 7.5 84.493 168.069 # K
273 1 1 1 6.742 98.75 20.654 # K
274 1 1 1 6.978 97.538 44.993 # K
275 1 1 1 9.006 86.957 147.135 # K
276 1 1 1 1.912 85.486 79.484 # K
277 1 1 1 4.942 95.148 172.582 # K
278 1 1 1 5.334 90.096 176.322 # K
279 1 1 1 10.184 86.053 15.036 # K
280 1 1 1 10.78 100.061 155.866 # K
281 1 1 1 -0.007 89.751 81.298 # K
282 1 1 1 8.074 99.602 75.336 # K
283 1 1 1 0.502 89.422 158.52 # K
284 1 1 1 1.186 90.141 166.903 # K
285 1 1 1 9.441 81.356 39.18 # K
286 1 1 1 7.402 81.456 43.284 # K
287 1 1 1 5.081 85.651 99.08 # K
288 1 1 1 5.234 94.003 38.831 # K
289 1 1 1 1.842 87.829 155.854 # K
290 1 1 1 10.111 87.761 78.687 # K
291 1 1 1 0.835 81.572 36.444 # K
292 1 1 1 7.321 85.173 24.033 # K
293 1 1 1 4.176 95.279 8.91 # K
294 1 1 1 9.967 98.327 158.224 # K
295 1 1 1 2.322 83.314 142.996 # K
296 1 1 1 5.35 82.363 169.264 # K
297 1 1 1 3.681 88.054 41.793 # K
298 1 2 -1 4.196 92.376 17.891 # Cl
299 1 2 -1 8.318 81.802 174.167 # Cl
300 1 2 -1 8.304 95.103 12.34 # Cl
301 1 2 -1 6.792 87.541 171.51 # Cl
302 1 2 -1 3.459 88.442 10.135 # Cl
303 1 2 -1 4.445 95.561 21.316 # Cl
304 1 2 -1 8.341 95.519 82.316 # Cl
305 1 2 -1 6.475 83.875 138.27 # Cl
306 1 2 -1 5.214 90.671 165.191 # Cl
307 1 2 -1 2.926 91.395 27.071 # Cl
308 1 2 -1 5.415 97.781 30.45 # Cl
309 1 2 -1 9.385 99.616 149.809 # Cl
310 1 2 -1 1.849 90.277 83.952 # Cl
311 1 2 -1 2.217 80.367 72.38 # Cl
312 1 2 -1 0.23 89.057 46.484 # Cl
313 1 2 -1 6.859 92.916 177.504 # Cl
314 1 2 -1 9.48 94.042 135.468 # Cl
315 1 2 -1 1.837 97.857 27.428 # Cl
316 1 2 -1 5.148 93.237 35.476 # Cl
317 1 2 -1 1.805 97.409 33.516 # Cl
318 1 2 -1 6.909 91.27 38.025 # Cl
319 1 2 -1 -1.334 91.204 162.852 # Cl
320 1 2 -1 3.144 84.651 82.621 # Cl
321 1 2 -1 10.23 81.917 28.451 # Cl
322 1 2 -1 5.071 92.691 151.821 # Cl
323 1 2 -1 1.919 79.565 6.64 # Cl
324 1 2 -1 7.072 88.087 25.725 # Cl
325 1 2 -1 3.957 96.634 136.978 # Cl
326 1 2 -1 7.689 86.55 4.726 # Cl
327 1 2 -1 3.555 97.971 173.857 # Cl
328 1 2 -1 0.876 84.121 85.375 # Cl
329 1 2 -1 3.367 87.162 140.329 # Cl
330 1 2 -1 6.663 82.785 145.359 # Cl
331 1 1 1 4.482 104.859 160.332 # K
332 1 1 1 2.132 116.216 163.108 # K
333 1 1 1 12.807 110.379 153.034 # K
334 1 1 1 4.79 109.706 81.443 # K
335 1 1 1 3.966 113.511 136.494 # K
336 1 1 1 6.557 108.104 8.303 # K
337 1 1 1 8.458 118.256 27.459 # K
338 1 1 1 7.5 104.493 168.069 # K
339 1 1 1 6.742 118.75 20.654 # K
340 1 1 1 6.978 117.538 44.993 # K
341 1 1 1 9.006 106.957 147.135 # K
342 1 1 1 1.912 105.486 79.484 # K
343 1 1 1 4.942 115.148 172.582 # K
344 1 1 1 5.334 110.096 176.322 # K
345 1 1 1 10.184 106.053 15.036 # K
346 1 1 1 10.78 120.061 155.866 # K
347 1 1 1 -0.007 109.751 81.298 # K
348 1 1 1 8.074 119.602 75.336 # K
349 1 1 1 0.502 109.422 158.52 # K
350 1 1 1 1.186 110.141 166.903 # K
351 1 1 1 9.441 101.356 39.18 # K
352 1 1 1 7.402 101.456 43.284 # K
353 1 1 1 5.081 105.651 99.08 # K
354 1 1 1 5.234 114.003 38.831 # K
355 1 1 1 1.842 107.829 155.854 # K
356 1 1 1 10.111 107.761 78.687 # K
357 1 1 1 0.835 101.572 36.444 # K
358 1 1 1 7.321 105.173 24.033 # K
359 1 1 1 4.176 115.279 8.91 # K
360 1 1 1 9.967 118.327 158.224 # K
361 1 1 1 2.322 103.314 142.996 # K
362 1 1 1 5.35 102.363 169.264 # K
363 1 1 1 3.681 108.054 41.793 # K
364 1 2 -1 4.196 112.376 17.891 # Cl
365 1 2 -1 8.318 101.802 174.167 # Cl
366 1 2 -1 8.304 115.103 12.34 # Cl
367 1 2 -1 6.792 107.541 171.51 # Cl
368 1 2 -1 3.459 108.442 10.135 # Cl
369 1 2 -1 4.445 115.561 21.316 # Cl
370 1 2 -1 8.341 115.519 82.316 # Cl
371 1 2 -1 6.475 103.875 138.27 # Cl
372 1 2 -1 5.214 110.671 165.191 # Cl
373 1 2 -1 2.926 111.395 27.071 # Cl
374 1 2 -1 5.415 117.781 30.45 # Cl
375 1 2 -1 9.385 119.616 149.809 # Cl
376 1 2 -1 1.849 110.277 83.952 # Cl
377 1 2 -1 2.217 100.367 72.38 # Cl
378 1 2 -1 0.23 109.057 46.484 # Cl
379 1 2 -1 6.859 112.916 177.504 # Cl
380 1 2 -1 9.48 114.042 135.468 # Cl
381 1 2 -1 1.837 117.857 27.428 # Cl
382 1 2 -1 5.148 113.237 35.476 # Cl
383 1 2 -1 1.805 117.409 33.516 # Cl
384 1 2 -1 6.909 111.27 38.025 # Cl
385 1 2 -1 -1.334 111.204 162.852 # Cl
386 1 2 -1 3.144 104.651 82.621 # Cl
387 1 2 -1 10.23 101.917 28.451 # Cl
388 1 2 -1 5.071 112.691 151.821 # Cl
389 1 2 -1 1.919 99.565 6.64 # Cl
390 1 2 -1 7.072 108.087 25.725 # Cl
391 1 2 -1 3.957 116.634 136.978 # Cl
392 1 2 -1 7.689 106.55 4.726 # Cl
393 1 2 -1 3.555 117.971 173.857 # Cl
394 1 2 -1 0.876 104.121 85.375 # Cl
395 1 2 -1 3.367 107.162 140.329 # Cl
396 1 2 -1 6.663 102.785 145.359 # Cl
397 1 1 1 4.482 124.859 160.332 # K
398 1 1 1 2.132 136.216 163.108 # K
399 1 1 1 12.807 130.379 153.034 # K
400 1 1 1 4.79 129.706 81.443 # K
401 1 1 1 3.966 133.511 136.494 # K
402 1 1 1 6.557 128.104 8.303 # K
403 1 1 1 8.458 138.256 27.459 # K
404 1 1 1 7.5 124.493 168.069 # K
405 1 1 1 6.742 138.75 20.654 # K
406 1 1 1 6.978 137.538 44.993 # K
407 1 1 1 9.006 126.957 147.135 # K
408 1 1 1 1.912 125.486 79.484 # K
409 1 1 1 4.942 135.148 172.582 # K
410 1 1 1 5.334 130.096 176.322 # K
411 1 1 1 10.184 126.053 15.036 # K
412 1 1 1 10.78 140.061 155.866 # K
413 1 1 1 -0.007 129.751 81.298 # K
414 1 1 1 8.074 139.602 75.336 # K
415 1 1 1 0.502 129.422 158.52 # K
416 1 1 1 1.186 130.141 166.903 # K
417 1 1 1 9.441 121.356 39.18 # K
418 1 1 1 7.402 121.456 43.284 # K
419 1 1 1 5.081 125.651 99.08 # K
420 1 1 1 5.234 134.003 38.831 # K
421 1 1 1 1.842 127.829 155.854 # K
422 1 1 1 10.111 127.761 78.687 # K
423 1 1 1 0.835 121.572 36.444 # K
424 1 1 1 7.321 125.173 24.033 # K
425 1 1 1 4.176 135.279 8.91 # K
426 1 1 1 9.967 138.327 158.224 # K
427 1 1 1 2.322 123.314 142.996 # K
428 1 1 1 5.35 122.363 169.264 # K
429 1 1 1 3.681 128.054 41.793 # K
430 1 2 -1 4.196 132.376 17.891 # Cl
431 1 2 -1 8.318 121.802 174.167 # Cl
432 1 2 -1 8.304 135.103 12.34 # Cl
433 1 2 -1 6.792 127.541 171.51 # Cl
434 1 2 -1 3.459 128.442 10.135 # Cl
435 1 2 -1 4.445 135.561 21.316 # Cl
436 1 2 -1 8.341 135.519 82.316 # Cl
437 1 2 -1 6.475 123.875 138.27 # Cl
438 1 2 -1 5.214 130.671 165.191 # Cl
439 1 2 -1 2.926 131.395 27.071 # Cl
440 1 2 -1 5.415 137.781 30.45 # Cl
441 1 2 -1 9.385 139.616 149.809 # Cl
442 1 2 -1 1.849 130.277 83.952 # Cl
443 1 2 -1 2.217 120.367 72.38 # Cl
444 1 2 -1 0.23 129.057 46.484 # Cl
445 1 2 -1 6.859 132.916 177.504 # Cl
446 1 2 -1 9.48 134.042 135.468 # Cl
447 1 2 -1 1.837 137.857 27.428 # Cl
448 1 2 -1 5.148 133.237 35.476 # Cl
449 1 2 -1 1.805 137.409 33.516 # Cl
450 1 2 -1 6.909 131.27 38.025 # Cl
451 1 2 -1 -1.334 131.204 162.852 # Cl
452 1 2 -1 3.144 124.651 82.621 # Cl
453 1 2 -1 10.23 121.917 28.451 # Cl
454 1 2 -1 5.071 132.691 151.821 # Cl
455 1 2 -1 1.919 119.565 6.64 # Cl
456 1 2 -1 7.072 128.087 25.725 # Cl
457 1 2 -1 3.957 136.634 136.978 # Cl
458 1 2 -1 7.689 126.55 4.726 # Cl
459 1 2 -1 3.555 137.971 173.857 # Cl
460 1 2 -1 0.876 124.121 85.375 # Cl
461 1 2 -1 3.367 127.162 140.329 # Cl
462 1 2 -1 6.663 122.785 145.359 # Cl
463 1 1 1 4.482 144.859 160.332 # K
464 1 1 1 2.132 156.216 163.108 # K
465 1 1 1 12.807 150.379 153.034 # K
466 1 1 1 4.79 149.706 81.443 # K
467 1 1 1 3.966 153.511 136.494 # K
468 1 1 1 6.557 148.104 8.303 # K
469 1 1 1 8.458 158.256 27.459 # K
470 1 1 1 7.5 144.493 168.069 # K
471 1 1 1 6.742 158.75 20.654 # K
472 1 1 1 6.978 157.538 44.993 # K
473 1 1 1 9.006 146.957 147.135 # K
474 1 1 1 1.912 145.486 79.484 # K
475 1 1 1 4.942 155.148 172.582 # K
476 1 1 1 5.334 150.096 176.322 # K
477 1 1 1 10.184 146.053 15.036 # K
478 1 1 1 10.78 160.061 155.866 # K
479 1 1 1 -0.007 149.751 81.298 # K
480 1 1 1 8.074 159.602 75.336 # K
481 1 1 1 0.502 149.422 158.52 # K
482 1 1 1 1.186 150.141 166.903 # K
483 1 1 1 9.441 141.356 39.18 # K
484 1 1 1 7.402 141.456 43.284 # K
485 1 1 1 5.081 145.651 99.08 # K
486 1 1 1 5.234 154.003 38.831 # K
487 1 1 1 1.842 147.829 155.854 # K
488 1 1 1 10.111 147.761 78.687 # K
489 1 1 1 0.835 141.572 36.444 # K
490 1 1 1 7.321 145.173 24.033 # K
491 1 1 1 4.176 155.279 8.91 # K
492 1 1 1 9.967 158.327 158.224 # K
493 1 1 1 2.322 143.314 142.996 # K
494 1 1 1 5.35 142.363 169.264 # K
495 1 1 1 3.681 148.054 41.793 # K
496 1 2 -1 4.196 152.376 17.891 # Cl
497 1 2 -1 8.318 141.802 174.167 # Cl
498 1 2 -1 8.304 155.103 12.34 # Cl
499 1 2 -1 6.792 147.541 171.51 # Cl
500 1 2 -1 3.459 148.442 10.135 # Cl
501 1 2 -1 4.445 155.561 21.316 # Cl
502 1 2 -1 8.341 155.519 82.316 # Cl
503 1 2 -1 6.475 143.875 138.27 # Cl
504 1 2 -1 5.214 150.671 165.191 # Cl
505 1 2 -1 2.926 151.395 27.071 # Cl
506 1 2 -1 5.415 157.781 30.45 # Cl
507 1 2 -1 9.385 159.616 149.809 # Cl
508 1 2 -1 1.849 150.277 83.952 # Cl
509 1 2 -1 2.217 140.367 72.38 # Cl
510 1 2 -1 0.23 149.057 46.484 # Cl
511 1 2 -1 6.859 152.916 177.504 # Cl
512 1 2 -1 9.48 154.042 135.468 # Cl
513 1 2 -1 1.837 157.857 27.428 # Cl
514 1 2 -1 5.148 153.237 35.476 # Cl
515 1 2 -1 1.805 157.409 33.516 # Cl
516 1 2 -1 6.909 151.27 38.025 # Cl
517 1 2 -1 -1.334 151.204 162.852 # Cl
518 1 2 -1 3.144 144.651 82.621 # Cl
519 1 2 -1 10.23 141.917 28.451 # Cl
520 1 2 -1 5.071 152.691 151.821 # Cl
521 1 2 -1 1.919 139.565 6.64 # Cl
522 1 2 -1 7.072 148.087 25.725 # Cl
523 1 2 -1 3.957 156.634 136.978 # Cl
524 1 2 -1 7.689 146.55 4.726 # Cl
525 1 2 -1 3.555 157.971 173.857 # Cl
526 1 2 -1 0.876 144.121 85.375 # Cl
527 1 2 -1 3.367 147.162 140.329 # Cl
528 1 2 -1 6.663 142.785 145.359 # Cl
529 1 1 1 4.482 164.859 160.332 # K
530 1 1 1 2.132 176.216 163.108 # K
531 1 1 1 12.807 170.379 153.034 # K
532 1 1 1 4.79 169.706 81.443 # K
533 1 1 1 3.966 173.511 136.494 # K
534 1 1 1 6.557 168.104 8.303 # K
535 1 1 1 8.458 178.256 27.459 # K
536 1 1 1 7.5 164.493 168.069 # K
537 1 1 1 6.742 178.75 20.654 # K
538 1 1 1 6.978 177.538 44.993 # K
539 1 1 1 9.006 166.957 147.135 # K
540 1 1 1 1.912 165.486 79.484 # K
541 1 1 1 4.942 175.148 172.582 # K
542 1 1 1 5.334 170.096 176.322 # K
543 1 1 1 10.184 166.053 15.036 # K
544 1 1 1 10.78 180.061 155.866 # K
545 1 1 1 -0.007 169.751 81.298 # K
546 1 1 1 8.074 179.602 75.336 # K
547 1 1 1 0.502 169.422 158.52 # K
548 1 1 1 1.186 170.141 166.903 # K
549 1 1 1 9.441 161.356 39.18 # K
550 1 1 1 7.402 161.456 43.284 # K
551 1 1 1 5.081 165.651 99.08 # K
552 1 1 1 5.234 174.003 38.831 # K
553 1 1 1 1.842 167.829 155.854 # K
554 1 1 1 10.111 167.761 78.687 # K
555 1 1 1 0.835 161.572 36.444 # K
556 1 1 1 7.321 165.173 24.033 # K
557 1 1 1 4.176 175.279 8.91 # K
558 1 1 1 9.967 178.327 158.224 # K
559 1 1 1 2.322 163.314 142.996 # K
560 1 1 1 5.35 162.363 169.264 # K
561 1 1 1 3.681 168.054 41.793 # K
562 1 2 -1 4.196 172.376 17.891 # Cl
563 1 2 -1 8.318 161.802 174.167 # Cl
564 1 2 -1 8.304 175.103 12.34 # Cl
565 1 2 -1 6.792 167.541 171.51 # Cl
566 1 2 -1 3.459 168.442 10.135 # Cl
567 1 2 -1 4.445 175.561 21.316 # Cl
568 1 2 -1 8.341 175.519 82.316 # Cl
569 1 2 -1 6.475 163.875 138.27 # Cl
570 1 2 -1 5.214 170.671 165.191 # Cl
571 1 2 -1 2.926 171.395 27.071 # Cl
572 1 2 -1 5.415 177.781 30.45 # Cl
573 1 2 -1 9.385 179.616 149.809 # Cl
574 1 2 -1 1.849 170.277 83.952 # Cl
575 1 2 -1 2.217 160.367 72.38 # Cl
576 1 2 -1 0.23 169.057 46.484 # Cl
577 1 2 -1 6.859 172.916 177.504 # Cl
578 1 2 -1 9.48 174.042 135.468 # Cl
579 1 2 -1 1.837 177.857 27.428 # Cl
580 1 2 -1 5.148 173.237 35.476 # Cl
581 1 2 -1 1.805 177.409 33.516 # Cl
582 1 2 -1 6.909 171.27 38.025 # Cl
583 1 2 -1 -1.334 171.204 162.852 # Cl
584 1 2 -1 3.144 164.651 82.621 # Cl
585 1 2 -1 10.23 161.917 28.451 # Cl
586 1 2 -1 5.071 172.691 151.821 # Cl
587 1 2 -1 1.919 159.565 6.64 # Cl
588 1 2 -1 7.072 168.087 25.725 # Cl
589 1 2 -1 3.957 176.634 136.978 # Cl
590 1 2 -1 7.689 166.55 4.726 # Cl
591 1 2 -1 3.555 177.971 173.857 # Cl
592 1 2 -1 0.876 164.121 85.375 # Cl
593 1 2 -1 3.367 167.162 140.329 # Cl
594 1 2 -1 6.663 162.785 145.359 # Cl
595 1 1 1 14.482 4.859 160.332 # K
596 1 1 1 12.132 16.216 163.108 # K
597 1 1 1 22.807 10.379 153.034 # K
598 1 1 1 14.79 9.706 81.443 # K
599 1 1 1 13.966 13.511 136.494 # K
600 1 1 1 16.557 8.104 8.303 # K
601 1 1 1 18.458 18.256 27.459 # K
602 1 1 1 17.5 4.493 168.069 # K
603 1 1 1 16.742 18.75 20.654 # K
604 1 1 1 16.978 17.538 44.993 # K
605 1 1 1 19.006 6.957 147.135 # K
606 1 1 1 11.912 5.486 79.484 # K
607 1 1 1 14.942 15.148 172.582 # K
608 1 1 1 15.334 10.096 176.322 # K
609 1 1 1 20.184 6.053 15.036 # K
610 1 1 1 20.78 20.061 155.866 # K
611 1 1 1 9.993 9.751 81.298 # K
612 1 1 1 18.074 19.602 75.336 # K
613 1 1 1 10.502 9.422 158.52 # K
614 1 1 1 11.186 10.141 166.903 # K
615 1 1 1 19.441 1.356 39.18 # K
616 1 1 1 17.402 1.456 43.284 # K
617 1 1 1 15.081 5.651 99.08 # K
618 1 1 1 15.234 14.003 38.831 # K
619 1 1 1 11.842 7.829 155.854 # K
620 1 1 1 20.111 7.761 78.687 # K
621 1 1 1 10.835 1.572 36.444 # K
622 1 1 1 17.321 5.173 24.033 # K
623 1 1 1 14.176 15.279 8.91 # K
624 1 1 1 19.967 18.327 158.224 # K
625 1 1 1 12.322 3.314 142.996 # K
626 1 1 1 15.35 2.363 169.264 # K
627 1 1 1 13.681 8.054 41.793 # K
628 1 2 -1 14.196 12.376 17.891 # Cl
629 1 2 -1 18.318 1.802 174.167 # Cl
630 1 2 -1 18.304 15.103 12.34 # Cl
631 1 2 -1 16.792 7.541 171.51 # Cl
632 1 2 -1 13.459 8.442 10.135 # Cl
633 1 2 -1 14.445 15.561 21.316 # Cl
634 1 2 -1 18.341 15.519 82.316 # Cl
635 1 2 -1 16.475 3.875 138.27 # Cl
636 1 2 -1 15.214 10.671 165.191 # Cl
637 1 2 -1 12.926 11.395 27.071 # Cl
638 1 2 -1 15.415 17.781 30.45 # Cl
639 1 2 -1 19.385 19.616 149.809 # Cl
640 1 2 -1 11.849 10.277 83.952 # Cl
641 1 2 -1 12.217 0.367 72.38 # Cl
642 1 2 -1 10.23 9.057 46.484 # Cl
643 1 2 -1 16.859 12.916 177.504 # Cl
644 1 2 -1 19.48 14.042 135.468 # Cl
645 1 2 -1 11.837 17.857 27.428 # Cl
646 1 2 -1 15.148 13.237 35.476 # Cl
647 1 2 -1 11.805 17.409 33.516 # Cl
648 1 2 -1 16.909 11.27 38.025 # Cl
649 1 2 -1 8.666 11.204 162.852 # Cl
650 1 2 -1 13.144 4.651 82.621 # Cl
651 1 2 -1 20.23 1.917 28.451 # Cl
652 1 2 -1 15.071 12.691 151.821 # Cl
653 1 2 -1 11.919 -0.435 6.64 # Cl
654 1 2 -1 17.072 8.087 25.725 # Cl
655 1 2 -1 13.957 16.634 136.978 # Cl
656 1 2 -1 17.689 6.55 4.726 # Cl
657 1 2 -1 13.555 17.971 173.857 # Cl
658 1 2 -1 10.876 4.121 85.375 # Cl
659 1 2 -1 13.367 7.162 140.329 # Cl
660 1 2 -1 16.663 2.785 145.359 # Cl
661 1 1 1 14.482 24.859 160.332 # K
662 1 1 1 12.132 36.216 163.108 # K
663 1 1 1 22.807 30.379 153.034 # K
664 1 1 1 14.79 29.706 81.443 # K
665 1 1 1 13.966 33.511 136.494 # K
666 1 1 1 16.557 28.104 8.303 # K
667 1 1 1 18.458 38.256 27.459 # K
668 1 1 1 17.5 24.493 168.069 # K
669 1 1 1 16.742 38.75 20.654 # K
670 1 1 1 16.978 37.538 44.993 # K
671 1 1 1 19.006 26.957 147.135 # K
672 1 1 1 11.912 25.486 79.484 # K
673 1 1 1 14.942 35.148 172.582 # K
674 1 1 1 15.334 30.096 176.322 # K
675 1 1 1 20.184 26.053 15.036 # K
676 1 1 1 20.78 40.061 155.866 # K
677 1 1 1 9.993 29.751 81.298 # K
678 1 1 1 18.074 39.602 75.336 # K
679 1 1 1 10.502 29.422 158.52 # K
680 1 1 1 11.186 30.141 166.903 # K
681 1 1 1 19.441 21.356 39.18 # K
682 1 1 1 17.402 21.456 43.284 # K
683 1 1 1 15.081 25.651 99.08 # K
684 1 1 1 15.234 34.003 38.831 # K
685 1 1 1 11.842 27.829 155.854 # K
686 1 1 1 20.111 27.761 78.687 # K
687 1 1 1 10.835 21.572 36.444 # K
688 1 1 1 17.321 25.173 24.033 # K
689 1 1 1 14.176 35.279 8.91 # K
690 1 1 1 19.967 38.327 158.224 # K
691 1 1 1 12.322 23.314 142.996 # K
692 1 1 1 15.35 22.363 169.264 # K
693 1 1 1 13.681 28.054 41.793 # K
694 1 2 -1 14.196 32.376 17.891 # Cl
695 1 2 -1 18.318 21.802 174.167 # Cl
696 1 2 -1 18.304 35.103 12.34 # Cl
697 1 2 -1 16.792 27.541 171.51 # Cl
698 1 2 -1 13.459 28.442 10.135 # Cl
699 1 2 -1 14.445 35.561 21.316 # Cl
700 1 2 -1 18.341 35.519 82.316 # Cl
701 1 2 -1 16.475 23.875 138.27 # Cl
702 1 2 -1 15.214 30.671 165.191 # Cl
703 1 2 -1 12.926 31.395 27.071 # Cl
704 1 2 -1 15.415 37.781 30.45 # Cl
705 1 2 -1 19.385 39.616 149.809 # Cl
706 1 2 -1 11.849 30.277 83.952 # Cl
707 1 2 -1 12.217 20.367 72.38 # Cl
708 1 2 -1 10.23 29.057 46.484 # Cl
709 1 2 -1 16.859 32.916 177.504 # Cl
710 1 2 -1 19.48 34.042 135.468 # Cl
711 1 2 -1 11.837 37.857 27.428 # Cl
712 1 2 -1 15.148 33.237 35.476 # Cl
713 1 2 -1 11.805 37.409 33.516 # Cl
714 1 2 -1 16.909 31.27 38.025 # Cl
715 1 2 -1 8.666 31.204 162.852 # Cl
716 1 2 -1 13.144 24.651 82.621 # Cl
717 1 2 -1 20.23 21.917 28.451 # Cl
718 1 2 -1 15.071 32.691 151.821 # Cl
719 1 2 -1 11.919 19.565 6.64 # Cl
720 1 2 -1 17.072 28.087 25.725 # Cl
721 1 2 -1 13.957 36.634 136.978 # Cl
722 1 2 -1 17.689 26.55 4.726 # Cl
723 1 2 -1 13.555 37.971 173.857 # Cl
724 1 2 -1 10.876 24.121 85.375 # Cl
725 1 2 -1 13.367 27.162 140.329 # Cl
726 1 2 -1 16.663 22.785 145.359 # Cl
727 1 1 1 14.482 44.859 160.332 # K
728 1 1 1 12.132 56.216 163.108 # K
729 1 1 1 22.807 50.379 153.034 # K
730 1 1 1 14.79 49.706 81.443 # K
731 1 1 1 13.966 53.511 136.494 # K
732 1 1 1 16.557 48.104 8.303 # K
733 1 1 1 18.458 58.256 27.459 # K
734 1 1 1 17.5 44.493 168.069 # K
735 1 1 1 16.742 58.75 20.654 # K
736 1 1 1 16.978 57.538 44.993 # K
737 1 1 1 19.006 46.957 147.135 # K
738 1 1 1 11.912 45.486 79.484 # K
739 1 1 1 14.942 55.148 172.582 # K
740 1 1 1 15.334 50.096 176.322 # K
741 1 1 1 20.184 46.053 15.036 # K
742 1 1 1 20.78 60.061 155.866 # K
743 1 1 1 9.993 49.751 81.298 # K
744 1 1 1 18.074 59.602 75.336 # K
745 1 1 1 10.502 49.422 158.52 # K
746 1 1 1 11.186 50.141 166.903 # K
747 1 1 1 19.441 41.356 39.18 # K
748 1 1 1 17.402 41.456 43.284 # K
749 1 1 1 15.081 45.651 99.08 # K
750 1 1 1 15.234 54.003 38.831 # K
751 1 1 1 11.842 47.829 155.854 # K
752 1 1 1 20.111 47.761 78.687 # K
753 1 1 1 10.835 41.572 36.444 # K
754 1 1 1 17.321 45.173 24.033 # K
755 1 1 1 14.176 55.279 8.91 # K
756 1 1 1 19.967 58.327 158.224 # K
757 1 1 1 12.322 43.314 142.996 # K
758 1 1 1 15.35 42.363 169.264 # K
759 1 1 1 13.681 48.054 41.793 # K
760 1 2 -1 14.196 52.376 17.891 # Cl
761 1 2 -1 18.318 41.802 174.167 # Cl
762 1 2 -1 18.304 55.103 12.34 # Cl
763 1 2 -1 16.792 47.541 171.51 # Cl
764 1 2 -1 13.459 48.442 10.135 # Cl
765 1 2 -1 14.445 55.561 21.316 # Cl
766 1 2 -1 18.341 55.519 82.316 # Cl
767 1 2 -1 16.475 43.875 138.27 # Cl
768 1 2 -1 15.214 50.671 165.191 # Cl
769 1 2 -1 12.926 51.395 27.071 # Cl
770 1 2 -1 15.415 57.781 30.45 # Cl
771 1 2 -1 19.385 59.616 149.809 # Cl
772 1 2 -1 11.849 50.277 83.952 # Cl
773 1 2 -1 12.217 40.367 72.38 # Cl
774 1 2 -1 10.23 49.057 46.484 # Cl
775 1 2 -1 16.859 52.916 177.504 # Cl
776 1 2 -1 19.48 54.042 135.468 # Cl
777 1 2 -1 11.837 57.857 27.428 # Cl
778 1 2 -1 15.148 53.237 35.476 # Cl
779 1 2 -1 11.805 57.409 33.516 # Cl
780 1 2 -1 16.909 51.27 38.025 # Cl
781 1 2 -1 8.666 51.204 162.852 # Cl
782 1 2 -1 13.144 44.651 82.621 # Cl
783 1 2 -1 20.23 41.917 28.451 # Cl
784 1 2 -1 15.071 52.691 151.821 # Cl
785 1 2 -1 11.919 39.565 6.64 # Cl
786 1 2 -1 17.072 48.087 25.725 # Cl
787 1 2 -1 13.957 56.634 136.978 # Cl
788 1 2 -1 17.689 46.55 4.726 # Cl
789 1 2 -1 13.555 57.971 173.857 # Cl
790 1 2 -1 10.876 44.121 85.375 # Cl
791 1 2 -1 13.367 47.162 140.329 # Cl
792 1 2 -1 16.663 42.785 145.359 # Cl
793 1 1 1 14.482 64.859 160.332 # K
794 1 1 1 12.132 76.216 163.108 # K
795 1 1 1 22.807 70.379 153.034 # K
796 1 1 1 14.79 69.706 81.443 # K
797 1 1 1 13.966 73.511 136.494 # K
798 1 1 1 16.557 68.104 8.303 # K
799 1 1 1 18.458 78.256 27.459 # K
800 1 1 1 17.5 64.493 168.069 # K
801 1 1 1 16.742 78.75 20.654 # K
802 1 1 1 16.978 77.538 44.993 # K
803 1 1 1 19.006 66.957 147.135 # K
804 1 1 1 11.912 65.486 79.484 # K
805 1 1 1 14.942 75.148 172.582 # K
806 1 1 1 15.334 70.096 176.322 # K
807 1 1 1 20.184 66.053 15.036 # K
808 1 1 1 20.78 80.061 155.866 # K
809 1 1 1 9.993 69.751 81.298 # K
810 1 1 1 18.074 79.602 75.336 # K
811 1 1 1 10.502 69.422 158.52 # K
812 1 1 1 11.186 70.141 166.903 # K
813 1 1 1 19.441 61.356 39.18 # K