2520 atoms 																
3420 bonds 																
6480 angles 																
12240 dihedrals 																
2160 impropers 																
																
2 atom types 																
2 bond types 																
2 angle types 																
3 dihedral types 																
2 improper types 																
																
0.0 280  xlo xhi 																
0.0 280  ylo yhi 																
0.0 280  zlo zhi 																
																
																
 Masses 																
 																
1 12.011 # C																
2 1.008  # H																
																
 Pair Coeffs 																
 																
1 0.07 3.55 # C																
2 0.03 2.42 # H																
																
 Bond Coeffs 																
 																
1 469.0 1.4 # C-C																
2 367.0 1.08 # C-H																
																
 Angle Coeffs 																
 																
1 63.0 120.0 # C-C-C																
2 35.0 120.0 # C-C-H																
																
 Dihedral Coeffs 																
 																
1 0.0 7.25 0.0 0.0 # C-C-C-C																
2 0.0 7.25 0.0 0.0 # C-C-C-H																
3 0.0 7.25 0.0 0.0 # H-C-C-H																
																
 Improper Coeffs 																
 																
1 5.0 180.0 # C-C-C-C																
2 5.0 180.0 # C-C-H-C																
																
 Atoms 																
 																
1 1 1 0 45 91.4148 28																
2 1 1 0 43.77474726 93.537 28																
3 1 1 0 45 92.8296 28																
4 1 1 0 46.22525274 93.537 28																
5 1 1 0 42.54949452 95.6592 28																
6 1 1 0 43.77474726 94.9518 28																
7 1 1 0 45 95.6592 28																
8 1 1 0 46.22525274 94.9518 28																
9 1 1 0 47.45050548 95.6592 28																
10 1 1 0 41.32424178 97.7814 28																
11 1 1 0 42.54949452 97.074 28																
12 1 1 0 43.77474726 97.7814 28																
13 1 1 0 45 97.074 28																
14 1 1 0 46.22525274 97.7814 28																
15 1 1 0 47.45050548 97.074 28																
16 1 1 0 48.67575822 97.7814 28																
17 1 1 0 40.09898903 99.9036 28																
18 1 1 0 41.32424178 99.1962 28																
19 1 1 0 42.54949452 99.9036 28																
20 1 1 0 43.77474726 99.1962 28																
21 1 1 0 45 99.9036 28																
22 1 1 0 46.22525274 99.1962 28																
23 1 1 0 47.45050548 99.9036 28																
24 1 1 0 48.67575822 99.1962 28																
25 1 1 0 49.90101097 99.9036 28																
26 1 1 -0.115 38.87373629 102.0258 28																
27 1 1 0 40.09898903 101.3184 28																
28 1 1 -0.115 41.32424178 102.0258 28																
29 1 1 0 42.54949452 101.3184 28																
30 1 1 -0.115 43.77474726 102.0258 28																
31 1 1 0 45 101.3184 28																
32 1 1 -0.115 46.22525274 102.0258 28																
33 1 1 0 47.45050548 101.3184 28																
34 1 1 -0.115 48.67575822 102.0258 28																
35 1 1 0 49.90101097 101.3184 28																
36 1 1 -0.115 51.12626371 102.0258 28																
37 1 2 0.115 38.87373629 103.1028 28																
38 1 2 0.115 41.32424178 103.1028 28																
39 1 2 0.115 43.77474726 103.1028 28																
40 1 2 0.115 46.22525274 103.1028 28																
41 1 2 0.115 48.67575822 103.1028 28																
42 1 2 0.115 51.12626371 103.1028 28																
43 1 1 0 46.22525274 90.7074 28																
44 1 1 0 47.45050548 92.8296 28																
45 1 1 0 47.45050548 91.4148 28																
46 1 1 0 48.67575822 90.7074 28																
47 1 1 0 48.67575822 94.9518 28																
48 1 1 0 48.67575822 93.537 28																
49 1 1 0 49.90101097 92.8296 28																
50 1 1 0 49.90101097 91.4148 28																
51 1 1 0 51.12626371 90.7074 28																
52 1 1 0 49.90101097 97.074 28																
53 1 1 0 49.90101097 95.6592 28																
54 1 1 0 51.12626371 94.9518 28																
55 1 1 0 51.12626371 93.537 28																
56 1 1 0 52.35151645 92.8296 28																
57 1 1 0 52.35151645 91.4148 28																
58 1 1 0 53.57676919 90.7074 28																
59 1 1 0 51.12626371 99.1962 28																
60 1 1 0 51.12626371 97.7814 28																
61 1 1 0 52.35151645 97.074 28																
62 1 1 0 52.35151645 95.6592 28																
63 1 1 0 53.57676919 94.9518 28																
64 1 1 0 53.57676919 93.537 28																
65 1 1 0 54.80202193 92.8296 28																
66 1 1 0 54.80202193 91.4148 28																
67 1 1 0 56.02727467 90.7074 28																
68 1 1 -0.115 52.35151645 101.3184 28																
69 1 1 0 52.35151645 99.9036 28																
70 1 1 -0.115 53.57676919 99.1962 28																
71 1 1 0 53.57676919 97.7814 28																
72 1 1 -0.115 54.80202193 97.074 28																
73 1 1 0 54.80202193 95.6592 28																
74 1 1 -0.115 56.02727467 94.9518 28																
75 1 1 0 56.02727467 93.537 28																
76 1 1 -0.115 57.25252741 92.8296 28																
77 1 1 0 57.25252741 91.4148 28																
78 1 1 -0.115 58.47778015 90.7074 28																
79 1 2 0.115 53.28422581 101.8569 28																
80 1 2 0.115 54.50947855 99.7347 28																
81 1 2 0.115 55.73473129 97.6125 28																
82 1 2 0.115 56.95998403 95.4903 28																
83 1 2 0.115 58.18523677 93.3681 28																
84 1 2 0.115 59.41048951 91.2459 28																
85 1 1 0 46.22525274 89.2926 28																
86 1 1 0 48.67575822 89.2926 28																
87 1 1 0 47.45050548 88.5852 28																
88 1 1 0 47.45050548 87.1704 28																
89 1 1 0 51.12626371 89.2926 28																
90 1 1 0 49.90101097 88.5852 28																
91 1 1 0 49.90101097 87.1704 28																
92 1 1 0 48.67575822 86.463 28																
93 1 1 0 48.67575822 85.0482 28																
94 1 1 0 53.57676919 89.2926 28																
95 1 1 0 52.35151645 88.5852 28																
96 1 1 0 52.35151645 87.1704 28																
97 1 1 0 51.12626371 86.463 28																
98 1 1 0 51.12626371 85.0482 28																
99 1 1 0 49.90101097 84.3408 28																
100 1 1 0 49.90101097 82.926 28																
101 1 1 0 56.02727467 89.2926 28																
102 1 1 0 54.80202193 88.5852 28																
103 1 1 0 54.80202193 87.1704 28																
104 1 1 0 53.57676919 86.463 28																
105 1 1 0 53.57676919 85.0482 28																
106 1 1 0 52.35151645 84.3408 28																
107 1 1 0 52.35151645 82.926 28																
108 1 1 0 51.12626371 82.2186 28																
109 1 1 0 51.12626371 80.8038 28																
110 1 1 -0.115 58.47778015 89.2926 28																
111 1 1 0 57.25252741 88.5852 28																
112 1 1 -0.115 57.25252741 87.1704 28																
113 1 1 0 56.02727467 86.463 28																
114 1 1 -0.115 56.02727467 85.0482 28																
115 1 1 0 54.80202193 84.3408 28																
116 1 1 -0.115 54.80202193 82.926 28																
117 1 1 0 53.57676919 82.2186 28																
118 1 1 -0.115 53.57676919 80.8038 28																
119 1 1 0 52.35151645 80.0964 28																
120 1 1 -0.115 52.35151645 78.6816 28																
121 1 2 0.115 59.41048951 88.7541 28																
122 1 2 0.115 58.18523677 86.6319 28																
123 1 2 0.115 56.95998403 84.5097 28																
124 1 2 0.115 55.73473129 82.3875 28																
125 1 2 0.115 54.50947855 80.2653 28																
126 1 2 0.115 53.28422581 78.1431 28																
127 1 1 0 45 88.5852 28																
128 1 1 0 46.22525274 86.463 28																
129 1 1 0 45 87.1704 28																
130 1 1 0 43.77474726 86.463 28																
131 1 1 0 47.45050548 84.3408 28																
132 1 1 0 46.22525274 85.0482 28																
133 1 1 0 45 84.3408 28																
134 1 1 0 43.77474726 85.0482 28																
135 1 1 0 42.54949452 84.3408 28																
136 1 1 0 48.67575822 82.2186 28																
137 1 1 0 47.45050548 82.926 28																
138 1 1 0 46.22525274 82.2186 28																
139 1 1 0 45 82.926 28																
140 1 1 0 43.77474726 82.2186 28																
141 1 1 0 42.54949452 82.926 28																
142 1 1 0 41.32424178 82.2186 28																
143 1 1 0 49.90101097 80.0964 28																
144 1 1 0 48.67575822 80.8038 28																
145 1 1 0 47.45050548 80.0964 28																
146 1 1 0 46.22525274 80.8038 28																
147 1 1 0 45 80.0964 28																
148 1 1 0 43.77474726 80.8038 28																
149 1 1 0 42.54949452 80.0964 28																
150 1 1 0 41.32424178 80.8038 28																
151 1 1 0 40.09898903 80.0964 28																
152 1 1 -0.115 51.12626371 77.9742 28																
153 1 1 0 49.90101097 78.6816 28																
154 1 1 -0.115 48.67575822 77.9742 28																
155 1 1 0 47.45050548 78.6816 28																
156 1 1 -0.115 46.22525274 77.9742 28																
157 1 1 0 45 78.6816 28																
158 1 1 -0.115 43.77474726 77.9742 28																
159 1 1 0 42.54949452 78.6816 28																
160 1 1 -0.115 41.32424178 77.9742 28																
161 1 1 0 40.09898903 78.6816 28																
162 1 1 -0.115 38.87373629 77.9742 28																
163 1 2 0.115 51.12626371 76.8972 28																
164 1 2 0.115 48.67575822 76.8972 28																
165 1 2 0.115 46.22525274 76.8972 28																
166 1 2 0.115 43.77474726 76.8972 28																
167 1 2 0.115 41.32424178 76.8972 28																
168 1 2 0.115 38.87373629 76.8972 28																
169 1 1 0 43.77474726 89.2926 28																
170 1 1 0 42.54949452 87.1704 28																
171 1 1 0 42.54949452 88.5852 28																
172 1 1 0 41.32424178 89.2926 28																
173 1 1 0 41.32424178 85.0482 28																
174 1 1 0 41.32424178 86.463 28																
175 1 1 0 40.09898903 87.1704 28																
176 1 1 0 40.09898903 88.5852 28																
177 1 1 0 38.87373629 89.2926 28																
178 1 1 0 40.09898903 82.926 28																
179 1 1 0 40.09898903 84.3408 28																
180 1 1 0 38.87373629 85.0482 28																
181 1 1 0 38.87373629 86.463 28																
182 1 1 0 37.64848355 87.1704 28																
183 1 1 0 37.64848355 88.5852 28																
184 1 1 0 36.42323081 89.2926 28																
185 1 1 0 38.87373629 80.8038 28																
186 1 1 0 38.87373629 82.2186 28																
187 1 1 0 37.64848355 82.926 28																
188 1 1 0 37.64848355 84.3408 28																
189 1 1 0 36.42323081 85.0482 28																
190 1 1 0 36.42323081 86.463 28																
191 1 1 0 35.19797807 87.1704 28																
192 1 1 0 35.19797807 88.5852 28																
193 1 1 0 33.97272533 89.2926 28																
194 1 1 -0.115 37.64848355 78.6816 28																
195 1 1 0 37.64848355 80.0964 28																
196 1 1 -0.115 36.42323081 80.8038 28																
197 1 1 0 36.42323081 82.2186 28																
198 1 1 -0.115 35.19797807 82.926 28																
199 1 1 0 35.19797807 84.3408 28																
200 1 1 -0.115 33.97272533 85.0482 28																
201 1 1 0 33.97272533 86.463 28																
202 1 1 -0.115 32.74747259 87.1704 28																
203 1 1 0 32.74747259 88.5852 28																
204 1 1 -0.115 31.52221985 89.2926 28																
205 1 2 0.115 36.71577419 78.1431 28																
206 1 2 0.115 35.49052145 80.2653 28																
207 1 2 0.115 34.26526871 82.3875 28																
208 1 2 0.115 33.04001597 84.5097 28																
209 1 2 0.115 31.81476323 86.6319 28																
210 1 2 0.115 30.58951049 88.7541 28																
211 1 1 0 43.77474726 90.7074 28																
212 1 1 0 41.32424178 90.7074 28																
213 1 1 0 42.54949452 91.4148 28																
214 1 1 0 42.54949452 92.8296 28																
215 1 1 0 38.87373629 90.7074 28																
216 1 1 0 40.09898903 91.4148 28																
217 1 1 0 40.09898903 92.8296 28																
218 1 1 0 41.32424178 93.537 28																
219 1 1 0 41.32424178 94.9518 28																
220 1 1 0 36.42323081 90.7074 28																
221 1 1 0 37.64848355 91.4148 28																
222 1 1 0 37.64848355 92.8296 28																
223 1 1 0 38.87373629 93.537 28																
224 1 1 0 38.87373629 94.9518 28																
225 1 1 0 40.09898903 95.6592 28																
226 1 1 0 40.09898903 97.074 28																
227 1 1 0 33.97272533 90.7074 28																
228 1 1 0 35.19797807 91.4148 28																
229 1 1 0 35.19797807 92.8296 28																
230 1 1 0 36.42323081 93.537 28																
231 1 1 0 36.42323081 94.9518 28																
232 1 1 0 37.64848355 95.6592 28																
233 1 1 0 37.64848355 97.074 28																
234 1 1 0 38.87373629 97.7814 28																
235 1 1 0 38.87373629 99.1962 28																
236 1 1 -0.115 31.52221985 90.7074 28																
237 1 1 0 32.74747259 91.4148 28																
238 1 1 -0.115 32.74747259 92.8296 28																
239 1 1 0 33.97272533 93.537 28																
240 1 1 -0.115 33.97272533 94.9518 28																
241 1 1 0 35.19797807 95.6592 28																
242 1 1 -0.115 35.19797807 97.074 28																
243 1 1 0 36.42323081 97.7814 28																
244 1 1 -0.115 36.42323081 99.1962 28																
245 1 1 0 37.64848355 99.9036 28																
246 1 1 -0.115 37.64848355 101.3184 28																
247 1 2 0.115 30.58951049 91.2459 28																
248 1 2 0.115 31.81476323 93.3681 28																
249 1 2 0.115 33.04001597 95.4903 28																
250 1 2 0.115 34.26526871 97.6125 28																
251 1 2 0.115 35.49052145 99.7347 28																
252 1 2 0.115 36.71577419 101.8569 28																
253 1 1 0 45 91.4148 43																
254 1 1 0 43.77474726 93.537 43																
255 1 1 0 45 92.8296 43																
256 1 1 0 46.22525274 93.537 43																
257 1 1 0 42.54949452 95.6592 43																
258 1 1 0 43.77474726 94.9518 43																
259 1 1 0 45 95.6592 43																
260 1 1 0 46.22525274 94.9518 43																
261 1 1 0 47.45050548 95.6592 43																
262 1 1 0 41.32424178 97.7814 43																
263 1 1 0 42.54949452 97.074 43																
264 1 1 0 43.77474726 97.7814 43																
265 1 1 0 45 97.074 43																
266 1 1 0 46.22525274 97.7814 43																
267 1 1 0 47.45050548 97.074 43																
268 1 1 0 48.67575822 97.7814 43																
269 1 1 0 40.09898903 99.9036 43																
270 1 1 0 41.32424178 99.1962 43																
271 1 1 0 42.54949452 99.9036 43																
272 1 1 0 43.77474726 99.1962 43																
273 1 1 0 45 99.9036 43																
274 1 1 0 46.22525274 99.1962 43																
275 1 1 0 47.45050548 99.9036 43																
276 1 1 0 48.67575822 99.1962 43																
277 1 1 0 49.90101097 99.9036 43																
278 1 1 -0.115 38.87373629 102.0258 43																
279 1 1 0 40.09898903 101.3184 43																
280 1 1 -0.115 41.32424178 102.0258 43																
281 1 1 0 42.54949452 101.3184 43																
282 1 1 -0.115 43.77474726 102.0258 43																
283 1 1 0 45 101.3184 43																
284 1 1 -0.115 46.22525274 102.0258 43																
285 1 1 0 47.45050548 101.3184 43																
286 1 1 -0.115 48.67575822 102.0258 43																
287 1 1 0 49.90101097 101.3184 43																
288 1 1 -0.115 51.12626371 102.0258 43																
289 1 2 0.115 38.87373629 103.1028 43																
290 1 2 0.115 41.32424178 103.1028 43																
291 1 2 0.115 43.77474726 103.1028 43																
292 1 2 0.115 46.22525274 103.1028 43																
293 1 2 0.115 48.67575822 103.1028 43																
294 1 2 0.115 51.12626371 103.1028 43																
295 1 1 0 46.22525274 90.7074 43																
296 1 1 0 47.45050548 92.8296 43																
297 1 1 0 47.45050548 91.4148 43																
298 1 1 0 48.67575822 90.7074 43																
299 1 1 0 48.67575822 94.9518 43																
300 1 1 0 48.67575822 93.537 43																
301 1 1 0 49.90101097 92.8296 43																
302 1 1 0 49.90101097 91.4148 43																
303 1 1 0 51.12626371 90.7074 43																
304 1 1 0 49.90101097 97.074 43																
305 1 1 0 49.90101097 95.6592 43																
306 1 1 0 51.12626371 94.9518 43																
307 1 1 0 51.12626371 93.537 43																
308 1 1 0 52.35151645 92.8296 43																
309 1 1 0 52.35151645 91.4148 43																
310 1 1 0 53.57676919 90.7074 43																
311 1 1 0 51.12626371 99.1962 43																
312 1 1 0 51.12626371 97.7814 43																
313 1 1 0 52.35151645 97.074 43																
314 1 1 0 52.35151645 95.6592 43																
315 1 1 0 53.57676919 94.9518 43																
316 1 1 0 53.57676919 93.537 43																
317 1 1 0 54.80202193 92.8296 43																
318 1 1 0 54.80202193 91.4148 43																
319 1 1 0 56.02727467 90.7074 43																
320 1 1 -0.115 52.35151645 101.3184 43																
321 1 1 0 52.35151645 99.9036 43																
322 1 1 -0.115 53.57676919 99.1962 43																
323 1 1 0 53.57676919 97.7814 43																
324 1 1 -0.115 54.80202193 97.074 43																
325 1 1 0 54.80202193 95.6592 43																
326 1 1 -0.115 56.02727467 94.9518 43																
327 1 1 0 56.02727467 93.537 43																
328 1 1 -0.115 57.25252741 92.8296 43																
329 1 1 0 57.25252741 91.4148 43																
330 1 1 -0.115 58.47778015 90.7074 43																
331 1 2 0.115 53.28422581 101.8569 43																
332 1 2 0.115 54.50947855 99.7347 43																
333 1 2 0.115 55.73473129 97.6125 43																
334 1 2 0.115 56.95998403 95.4903 43																
335 1 2 0.115 58.18523677 93.3681 43																
336 1 2 0.115 59.41048951 91.2459 43																
337 1 1 0 46.22525274 89.2926 43																
338 1 1 0 48.67575822 89.2926 43																
339 1 1 0 47.45050548 88.5852 43																
340 1 1 0 47.45050548 87.1704 43																
341 1 1 0 51.12626371 89.2926 43																
342 1 1 0 49.90101097 88.5852 43																
343 1 1 0 49.90101097 87.1704 43																
344 1 1 0 48.67575822 86.463 43																
345 1 1 0 48.67575822 85.0482 43																
346 1 1 0 53.57676919 89.2926 43																
347 1 1 0 52.35151645 88.5852 43																
348 1 1 0 52.35151645 87.1704 43																
349 1 1 0 51.12626371 86.463 43																
350 1 1 0 51.12626371 85.0482 43																
351 1 1 0 49.90101097 84.3408 43																
352 1 1 0 49.90101097 82.926 43																
353 1 1 0 56.02727467 89.2926 43																
354 1 1 0 54.80202193 88.5852 43																
355 1 1 0 54.80202193 87.1704 43																
356 1 1 0 53.57676919 86.463 43																
357 1 1 0 53.57676919 85.0482 43																
358 1 1 0 52.35151645 84.3408 43																
359 1 1 0 52.35151645 82.926 43																
360 1 1 0 51.12626371 82.2186 43																
361 1 1 0 51.12626371 80.8038 43																
362 1 1 -0.115 58.47778015 89.2926 43																
363 1 1 0 57.25252741 88.5852 43																
364 1 1 -0.115 57.25252741 87.1704 43																
365 1 1 0 56.02727467 86.463 43																
366 1 1 -0.115 56.02727467 85.0482 43																
367 1 1 0 54.80202193 84.3408 43																
368 1 1 -0.115 54.80202193 82.926 43																
369 1 1 0 53.57676919 82.2186 43																
370 1 1 -0.115 53.57676919 80.8038 43																
371 1 1 0 52.35151645 80.0964 43																
372 1 1 -0.115 52.35151645 78.6816 43																
373 1 2 0.115 59.41048951 88.7541 43																
374 1 2 0.115 58.18523677 86.6319 43																
375 1 2 0.115 56.95998403 84.5097 43																
376 1 2 0.115 55.73473129 82.3875 43																
377 1 2 0.115 54.50947855 80.2653 43																
378 1 2 0.115 53.28422581 78.1431 43																
379 1 1 0 45 88.5852 43																
380 1 1 0 46.22525274 86.463 43																
381 1 1 0 45 87.1704 43																
382 1 1 0 43.77474726 86.463 43																
383 1 1 0 47.45050548 84.3408 43																
384 1 1 0 46.22525274 85.0482 43																
385 1 1 0 45 84.3408 43																
386 1 1 0 43.77474726 85.0482 43																
387 1 1 0 42.54949452 84.3408 43																
388 1 1 0 48.67575822 82.2186 43																
389 1 1 0 47.45050548 82.926 43																
390 1 1 0 46.22525274 82.2186 43																
391 1 1 0 45 82.926 43																
392 1 1 0 43.77474726 82.2186 43																
393 1 1 0 42.54949452 82.926 43																
394 1 1 0 41.32424178 82.2186 43																
395 1 1 0 49.90101097 80.0964 43																
396 1 1 0 48.67575822 80.8038 43																
397 1 1 0 47.45050548 80.0964 43																
398 1 1 0 46.22525274 80.8038 43																
399 1 1 0 45 80.0964 43																
400 1 1 0 43.77474726 80.8038 43																
401 1 1 0 42.54949452 80.0964 43																
402 1 1 0 41.32424178 80.8038 43																
403 1 1 0 40.09898903 80.0964 43																
404 1 1 -0.115 51.12626371 77.9742 43																
405 1 1 0 49.90101097 78.6816 43																
406 1 1 -0.115 48.67575822 77.9742 43																
407 1 1 0 47.45050548 78.6816 43																
408 1 1 -0.115 46.22525274 77.9742 43																
409 1 1 0 45 78.6816 43																
410 1 1 -0.115 43.77474726 77.9742 43																
411 1 1 0 42.54949452 78.6816 43																
412 1 1 -0.115 41.32424178 77.9742 43																
413 1 1 0 40.09898903 78.6816 43																
414 1 1 -0.115 38.87373629 77.9742 43																
415 1 2 0.115 51.12626371 76.8972 43																
416 1 2 0.115 48.67575822 76.8972 43																
417 1 2 0.115 46.22525274 76.8972 43																
418 1 2 0.115 43.77474726 76.8972 43																
419 1 2 0.115 41.32424178 76.8972 43																
420 1 2 0.115 38.87373629 76.8972 43																
421 1 1 0 43.77474726 89.2926 43																
422 1 1 0 42.54949452 87.1704 43																
423 1 1 0 42.54949452 88.5852 43																
424 1 1 0 41.32424178 89.2926 43																
425 1 1 0 41.32424178 85.0482 43																
426 1 1 0 41.32424178 86.463 43																
427 1 1 0 40.09898903 87.1704 43																
428 1 1 0 40.09898903 88.5852 43																
429 1 1 0 38.87373629 89.2926 43																
430 1 1 0 40.09898903 82.926 43																
431 1 1 0 40.09898903 84.3408 43																
432 1 1 0 38.87373629 85.0482 43																
433 1 1 0 38.87373629 86.463 43																
434 1 1 0 37.64848355 87.1704 43																
435 1 1 0 37.64848355 88.5852 43																
436 1 1 0 36.42323081 89.2926 43																
437 1 1 0 38.87373629 80.8038 43																
438 1 1 0 38.87373629 82.2186 43																
439 1 1 0 37.64848355 82.926 43																
440 1 1 0 37.64848355 84.3408 43																
441 1 1 0 36.42323081 85.0482 43																
442 1 1 0 36.42323081 86.463 43																
443 1 1 0 35.19797807 87.1704 43																
444 1 1 0 35.19797807 88.5852 43																
445 1 1 0 33.97272533 89.2926 43																
446 1 1 -0.115 37.64848355 78.6816 43																
447 1 1 0 37.64848355 80.0964 43																
448 1 1 -0.115 36.42323081 80.8038 43																
449 1 1 0 36.42323081 82.2186 43																
450 1 1 -0.115 35.19797807 82.926 43																
451 1 1 0 35.19797807 84.3408 43																
452 1 1 -0.115 33.97272533 85.0482 43																
453 1 1 0 33.97272533 86.463 43																
454 1 1 -0.115 32.74747259 87.1704 43																
455 1 1 0 32.74747259 88.5852 43																
456 1 1 -0.115 31.52221985 89.2926 43																
457 1 2 0.115 36.71577419 78.1431 43																
458 1 2 0.115 35.49052145 80.2653 43																
459 1 2 0.115 34.26526871 82.3875 43																
460 1 2 0.115 33.04001597 84.5097 43																
461 1 2 0.115 31.81476323 86.6319 43																
462 1 2 0.115 30.58951049 88.7541 43																
463 1 1 0 43.77474726 90.7074 43																
464 1 1 0 41.32424178 90.7074 43																
465 1 1 0 42.54949452 91.4148 43																
466 1 1 0 42.54949452 92.8296 43																
467 1 1 0 38.87373629 90.7074 43																
468 1 1 0 40.09898903 91.4148 43																
469 1 1 0 40.09898903 92.8296 43																
470 1 1 0 41.32424178 93.537 43																
471 1 1 0 41.32424178 94.9518 43																
472 1 1 0 36.42323081 90.7074 43																
473 1 1 0 37.64848355 91.4148 43																
474 1 1 0 37.64848355 92.8296 43																
475 1 1 0 38.87373629 93.537 43																
476 1 1 0 38.87373629 94.9518 43																
477 1 1 0 40.09898903 95.6592 43																
478 1 1 0 40.09898903 97.074 43																
479 1 1 0 33.97272533 90.7074 43																
480 1 1 0 35.19797807 91.4148 43																
481 1 1 0 35.19797807 92.8296 43																
482 1 1 0 36.42323081 93.537 43																
483 1 1 0 36.42323081 94.9518 43																
484 1 1 0 37.64848355 95.6592 43																
485 1 1 0 37.64848355 97.074 43																
486 1 1 0 38.87373629 97.7814 43																
487 1 1 0 38.87373629 99.1962 43																
488 1 1 -0.115 31.52221985 90.7074 43																
489 1 1 0 32.74747259 91.4148 43																
490 1 1 -0.115 32.74747259 92.8296 43																
491 1 1 0 33.97272533 93.537 43																
492 1 1 -0.115 33.97272533 94.9518 43																
493 1 1 0 35.19797807 95.6592 43																
494 1 1 -0.115 35.19797807 97.074 43																
495 1 1 0 36.42323081 97.7814 43																
496 1 1 -0.115 36.42323081 99.1962 43																
497 1 1 0 37.64848355 99.9036 43																
498 1 1 -0.115 37.64848355 101.3184 43																
499 1 2 0.115 30.58951049 91.2459 43																
500 1 2 0.115 31.81476323 93.3681 43																
501 1 2 0.115 33.04001597 95.4903 43																
502 1 2 0.115 34.26526871 97.6125 43																
503 1 2 0.115 35.49052145 99.7347 43																
504 1 2 0.115 36.71577419 101.8569 43																
505 1 1 0 45 91.4148 148																
506 1 1 0 43.77474726 93.537 148																
507 1 1 0 45 92.8296 148																
508 1 1 0 46.22525274 93.537 148																
509 1 1 0 42.54949452 95.6592 148																
510 1 1 0 43.77474726 94.9518 148																
511 1 1 0 45 95.6592 148																
512 1 1 0 46.22525274 94.9518 148																
513 1 1 0 47.45050548 95.6592 148																
514 1 1 0 41.32424178 97.7814 148																
515 1 1 0 42.54949452 97.074 148																
516 1 1 0 43.77474726 97.7814 148																
517 1 1 0 45 97.074 148																
518 1 1 0 46.22525274 97.7814 148																
519 1 1 0 47.45050548 97.074 148																
520 1 1 0 48.67575822 97.7814 148																
521 1 1 0 40.09898903 99.9036 148																
522 1 1 0 41.32424178 99.1962 148																
523 1 1 0 42.54949452 99.9036 148																
524 1 1 0 43.77474726 99.1962 148																
525 1 1 0 45 99.9036 148																
526 1 1 0 46.22525274 99.1962 148																
527 1 1 0 47.45050548 99.9036 148																
528 1 1 0 48.67575822 99.1962 148																
529 1 1 0 49.90101097 99.9036 148																
530 1 1 -0.115 38.87373629 102.0258 148																
531 1 1 0 40.09898903 101.3184 148																
532 1 1 -0.115 41.32424178 102.0258 148																
533 1 1 0 42.54949452 101.3184 148																
534 1 1 -0.115 43.77474726 102.0258 148																
535 1 1 0 45 101.3184 148																
536 1 1 -0.115 46.22525274 102.0258 148																
537 1 1 0 47.45050548 101.3184 148																
538 1 1 -0.115 48.67575822 102.0258 148																
539 1 1 0 49.90101097 101.3184 148																
540 1 1 -0.115 51.12626371 102.0258 148																
541 1 2 0.115 38.87373629 103.1028 148																
542 1 2 0.115 41.32424178 103.1028 148																
543 1 2 0.115 43.77474726 103.1028 148																
544 1 2 0.115 46.22525274 103.1028 148																
545 1 2 0.115 48.67575822 103.1028 148																
546 1 2 0.115 51.12626371 103.1028 148																
547 1 1 0 46.22525274 90.7074 148																
548 1 1 0 47.45050548 92.8296 148																
549 1 1 0 47.45050548 91.4148 148																
550 1 1 0 48.67575822 90.7074 148																
551 1 1 0 48.67575822 94.9518 148																
552 1 1 0 48.67575822 93.537 148																
553 1 1 0 49.90101097 92.8296 148																
554 1 1 0 49.90101097 91.4148 148																
555 1 1 0 51.12626371 90.7074 148																
556 1 1 0 49.90101097 97.074 148																
557 1 1 0 49.90101097 95.6592 148																
558 1 1 0 51.12626371 94.9518 148																
559 1 1 0 51.12626371 93.537 148																
560 1 1 0 52.35151645 92.8296 148																
561 1 1 0 52.35151645 91.4148 148																
562 1 1 0 53.57676919 90.7074 148																
563 1 1 0 51.12626371 99.1962 148																
564 1 1 0 51.12626371 97.7814 148																